INPUT

project name:          projetohydra
Number of processors:  1
Molecule charge:       1
Ionization position:   2
gamess header:  
 $CONTRL SCFTYP=RHF RUNTYP=GRADIENT COORD=UNIQUE
         NZVAR=0 ICHARG=1 MULT=1 MAXIT=200 $END
 $SYSTEM MWORDS=20 MEMDDI=20 $END
 $DATA
aug-cc-pvtz
C1

base file names:  
0:   h2base
number of atoms for each base:  
0:   5
initial coordinates:  
0:   -1.04654   -2.46694   0
1:   -1.85666   -2.46694   0
2:   -1.4516   -1.55801   0
3:   -1.4516   -0.30341   0.38425
4:   -1.4516   -0.30341   -0.38425
Expoents and contractions:  
0:   0.7
1:   1
MM gaussians correction:  
0:   1
1:   0.2
2:   3
END OF INPUT

energy
6.60393
coordinates   
15
-1.04654
-1.85666
-1.4516
-1.4516
-1.4516
-2.46694
-2.46694
-1.55801
-0.30341
-0.30341
0
0
0
0.38425
-0.38425
dipole
1.58715
-0
-1.58715
-0
ionization
0.7201
