 *******************************************************************************
 ** Site#:  999            For non-commercial use only        Version 11.03W  **
 *******************************************************************************
 ** Cite this work as: MOPAC2009, James J. P. Stewart, Stewart Computational  **
 ** Chemistry, Version 11.03W  web: HTTP://OpenMOPAC.net                      **
 *******************************************************************************
 **                                                                           **
 **                                MOPAC2009                                  **
 **                                                                           **
 *******************************************************************************

                            RM1 CALCULATION RESULTS


 *******************************************************************************
 *  CALCULATION DONE:                                Mon Feb 15 10:20:48 2016  *
 *  RM1      - The RM1 Hamiltonian to be used
 *  GEO-OK   - OVERRIDE INTERATOMIC DISTANCE CHECK
 *  EXTERNAL - USE ATOMIC PARAMETERS FROM THE FOLLOWING FILE
               spk_Eu.inp 
 *  PRECISE  - CRITERIA TO BE INCREASED BY 100 TIMES
 *  XYZ      - CARTESIAN COORDINATE SYSTEM TO BE USED
 *  FORCE    - FORCE CALCULATION SPECIFIED
 *  T=       - A TIME OF     10.0 DAYS    REQUESTED
 *  DUMP=N   - RESTART FILE WRITTEN EVERY  7200.000 SECONDS
 *  SCFCRT   - DEFAULT SCF CRITERION REPLACED BY   0.100E-09
 *  AUX      - OUTPUT AUXILIARY INFORMATION
 *  NOINTER  - THIS KEYWORD HAS BEEN REPLACED BY PRTINT
 *  NOLOG    - SUPPRESS LOG FILE
 *  THERMO   - THERMODYNAMIC QUANTITIES TO BE CALCULATED
 *******************************************************************************
EXTERNAL=spk_Eu.inp  +
RM1 PRECISE NOINTER XYZ T=10D AUX THERMO FORCE +
 NOLOG GEO-OK SCFCRT=1.D-10
 Eu-btfa-3-dbso-1-ptso-1

   ATOM   CHEMICAL          X               Y               Z
  NUMBER   SYMBOL      (ANGSTROMS)     (ANGSTROMS)     (ANGSTROMS)
 
     1      Eu          0.00000000  *   0.00000000  *   0.00000000  *
     2       O         -1.08830000  *   1.00220000  *  -1.95520000  *
     3       O          1.08490000  *  -0.44150000  *  -2.19660000  *
     4       C         -1.04990000  *   1.18950000  *  -3.20150000  *
     5       C         -0.00700000  *   0.64580000  *  -3.99990000  *
     6       C          0.98130000  *  -0.11290000  *  -3.41350000  *
     7       C         -2.11060000  *   2.00890000  *  -3.81350000  *
     8       C          2.10340000  *  -0.67170000  *  -4.35890000  *
     9       C         -2.55570000  *   3.14860000  *  -3.14770000  *
    10       C         -2.65780000  *   1.64790000  *  -5.04130000  *
    11       C         -3.64950000  *   2.43850000  *  -5.60780000  *
    12       C         -3.54150000  *   3.93930000  *  -3.72550000  *
    13       C         -4.08660000  *   3.58520000  *  -4.95380000  *
    14       H          0.01880000  *   0.86710000  *  -5.06690000  *
    15       F          1.67670000  *  -1.68400000  *  -5.12900000  *
    16       F          2.59220000  *   0.23850000  *  -5.21500000  *
    17       F          3.18410000  *  -1.15130000  *  -3.72260000  *
    18       H         -2.12650000  *   3.41930000  *  -2.17500000  *
    19       H         -2.32230000  *   0.74200000  *  -5.55610000  *
    20       H         -4.08440000  *   2.15980000  *  -6.57200000  *
    21       H         -3.88590000  *   4.84160000  *  -3.21160000  *
    22       H         -4.86180000  *   4.21000000  *  -5.40780000  *
    23       O          1.39150000  *   0.63730000  *   1.93380000  *
    24       O         -1.14930000  *   0.34770000  *   2.17260000  *
    25       C          1.42050000  *   1.03890000  *   3.13010000  *
    26       C          0.23870000  *   1.16660000  *   3.90030000  *
    27       C         -0.97030000  *   0.81870000  *   3.33080000  *
    28       C          2.73550000  *   1.37200000  *   3.71070000  *
    29       C         -2.24910000  *   0.97420000  *   4.22190000  *
    30       C          3.66590000  *   2.06330000  *   2.93850000  *
    31       C          3.03930000  *   0.99710000  *   5.01580000  *
    32       C          4.28220000  *   1.31610000  *   5.54860000  *
    33       C          4.90520000  *   2.38200000  *   3.47940000  *
    34       C          5.21260000  *   2.00960000  *   4.78300000  *
    35       H          0.28440000  *   1.57510000  *   4.90910000  *
    36       F         -2.20800000  *   0.19290000  *   5.31470000  *
    37       F         -2.41990000  *   2.21860000  *   4.69130000  *
    38       F         -3.40500000  *   0.66440000  *   3.61950000  *
    39       H          3.41410000  *   2.36480000  *   1.91330000  *
    40       H          2.31030000  *   0.44730000  *   5.62010000  *
    41       H          4.52620000  *   1.02550000  *   6.57470000  *
    42       H          5.63670000  *   2.93150000  *   2.87950000  *
    43       H          6.18760000  *   2.26600000  *   5.20870000  *
    44       O          1.79100000  *   1.53450000  *  -0.68740000  *
    45       O         -0.34830000  *   2.41980000  *   0.45800000  *
    46       C          2.22240000  *   2.72400000  *  -0.70090000  *
    47       C          1.44100000  *   3.80270000  *  -0.22510000  *
    48       C          0.19800000  *   3.54590000  *   0.32720000  *
    49       C          3.57440000  *   2.96710000  *  -1.23740000  *
    50       C         -0.63650000  *   4.76740000  *   0.85010000  *
    51       C          3.99660000  *   2.27570000  *  -2.36950000  *
    52       C          4.41760000  *   3.88450000  *  -0.61640000  *
    53       C          5.68350000  *   4.11540000  *  -1.13930000  *
    54       C          5.26110000  *   2.51750000  *  -2.89230000  *
    55       C          6.10290000  *   3.43710000  *  -2.27840000  *
    56       H          1.80970000  *   4.82350000  *  -0.31810000  *
    57       F          0.09580000  *   5.68670000  *   1.49700000  *
    58       F         -1.24290000  *   5.43900000  *  -0.14240000  *
    59       F         -1.61840000  *   4.44550000  *   1.70360000  *
    60       H          3.33010000  *   1.54730000  *  -2.84610000  *
    61       H          4.09440000  *   4.41690000  *   0.28420000  *
    62       H          6.34980000  *   4.83570000  *  -0.65600000  *
    63       H          5.59140000  *   1.98290000  *  -3.78780000  *
    64       H          7.09790000  *   3.62770000  *  -2.69190000  *
    65       H          3.35460000  *  -0.43460000  *  -0.87510000  *
    66       H          3.45540000  *   0.11570000  *   0.75180000  *
    67       H          3.63440000  *  -3.74590000  *  -0.94250000  *
    68       C          2.71980000  *  -3.14920000  *  -0.74870000  *
    69       C          3.72110000  *  -0.77940000  *   0.12820000  *
    70       C         -0.87410000  *  -4.24150000  *  -0.98250000  *
    71       C         -0.76700000  *  -5.60530000  *  -0.73680000  *
    72       C          0.47470000  *  -6.16420000  *  -0.46310000  *
    73       C          1.60970000  *  -5.36380000  *  -0.45100000  *
    74       C          1.50130000  *  -3.99830000  *  -0.70160000  *
    75       C          0.25100000  *  -3.42440000  *  -0.95150000  *
    76       S          2.90520000  *  -2.22450000  *   0.75780000  *
    77       C          5.19120000  *  -0.99060000  *   0.10940000  *
    78       C          5.80230000  *  -1.54240000  *  -1.01470000  *
    79       C          7.17600000  *  -1.74690000  *  -1.02510000  *
    80       C          7.94290000  *  -1.39720000  *   0.08010000  *
    81       C          7.33480000  *  -0.83290000  *   1.19470000  *
    82       C          5.96140000  *  -0.62490000  *   1.21140000  *
    83       H          0.14490000  *  -2.33080000  *  -1.16860000  *
    84       H         -1.85040000  *  -3.81040000  *  -1.22280000  *
    85       H          0.56130000  *  -7.23720000  *  -0.26670000  *
    86       H          2.58610000  *  -5.81720000  *  -0.25550000  *
    87       H          5.20850000  *  -1.80070000  *  -1.89800000  *
    88       H          7.65520000  *  -2.17860000  *  -1.90910000  *
    89       H          7.93890000  *  -0.54580000  *   2.06060000  *
    90       H          5.49500000  *  -0.15820000  *   2.08600000  *
    91       O          1.50560000  *  -1.68930000  *   0.91990000  *
    92       H         -1.65870000  *  -6.23850000  *  -0.76380000  *
    93       H          9.02480000  *  -1.55910000  *   0.06920000  *
    94       H          2.65570000  *  -2.50790000  *  -1.65880000  *
    95       C         -4.04490000  *  -3.32000000  *   3.24700000  *
    96       C         -2.77200000  *  -3.41720000  *   3.80690000  *
    97       C         -1.66980000  *  -2.94480000  *   3.09790000  *
    98       C         -1.84060000  *  -2.37810000  *   1.84180000  *
    99       C         -3.11080000  *  -2.28180000  *   1.26830000  *
   100       C         -4.20420000  *  -2.75070000  *   1.99460000  *
   101       S         -3.38530000  *  -1.65750000  *  -0.30780000  *
   102       C         -4.15060000  *  -0.17540000  *   0.01450000  *
   103       C         -3.45220000  *   1.01760000  *   0.20710000  *
   104       C         -4.13660000  *   2.20950000  *   0.41310000  *
   105       C         -5.52780000  *   2.22220000  *   0.44130000  *
   106       C         -6.23500000  *   1.03400000  *   0.24780000  *
   107       C         -5.54660000  *  -0.14590000  *   0.03680000  *
   108       H         -5.21200000  *  -2.66390000  *   1.57160000  *
   109       H         -4.91880000  *  -3.67870000  *   3.79920000  *
   110       H         -0.66530000  *  -3.00550000  *   3.53030000  *
   111       H         -0.91640000  *  -2.02620000  *   1.30390000  *
   112       H         -2.33220000  *   1.05240000  *   0.18840000  *
   113       H         -3.57340000  *   3.13710000  *   0.56480000  *
   114       H         -7.32880000  *   1.03320000  *   0.26630000  *
   115       H         -6.10980000  *  -1.07330000  *  -0.12100000  *
   116       O         -1.99080000  *  -1.23310000  *  -0.69220000  *
   117       C         -2.59680000  *  -3.99510000  *   5.16360000  *
   118       C         -6.24740000  *   3.49600000  *   0.69550000  *
   119       H         -1.60890000  *  -4.45650000  *   5.31010000  *
   120       H         -3.34180000  *  -4.77020000  *   5.39800000  *
   121       H         -2.69890000  *  -3.21090000  *   5.93120000  *
   122       H         -7.30160000  *   3.47270000  *   0.38280000  *
   123       H         -6.23780000  *   3.73730000  *   1.77060000  *
   124       H         -5.78460000  *   4.34900000  *   0.17590000  *
 


          CARTESIAN COORDINATES 

    NO.       ATOM         X         Y         Z

     1        Eu        0.0000    0.0000    0.0000
     2         O       -1.0883    1.0022   -1.9552
     3         O        1.0849   -0.4415   -2.1966
     4         C       -1.0499    1.1895   -3.2015
     5         C       -0.0070    0.6458   -3.9999
     6         C        0.9813   -0.1129   -3.4135
     7         C       -2.1106    2.0089   -3.8135
     8         C        2.1034   -0.6717   -4.3589
     9         C       -2.5557    3.1486   -3.1477
    10         C       -2.6578    1.6479   -5.0413
    11         C       -3.6495    2.4385   -5.6078
    12         C       -3.5415    3.9393   -3.7255
    13         C       -4.0866    3.5852   -4.9538
    14         H        0.0188    0.8671   -5.0669
    15         F        1.6767   -1.6840   -5.1290
    16         F        2.5922    0.2385   -5.2150
    17         F        3.1841   -1.1513   -3.7226
    18         H       -2.1265    3.4193   -2.1750
    19         H       -2.3223    0.7420   -5.5561
    20         H       -4.0844    2.1598   -6.5720
    21         H       -3.8859    4.8416   -3.2116
    22         H       -4.8618    4.2100   -5.4078
    23         O        1.3915    0.6373    1.9338
    24         O       -1.1493    0.3477    2.1726
    25         C        1.4205    1.0389    3.1301
    26         C        0.2387    1.1666    3.9003
    27         C       -0.9703    0.8187    3.3308
    28         C        2.7355    1.3720    3.7107
    29         C       -2.2491    0.9742    4.2219
    30         C        3.6659    2.0633    2.9385
    31         C        3.0393    0.9971    5.0158
    32         C        4.2822    1.3161    5.5486
    33         C        4.9052    2.3820    3.4794
    34         C        5.2126    2.0096    4.7830
    35         H        0.2844    1.5751    4.9091
    36         F       -2.2080    0.1929    5.3147
    37         F       -2.4199    2.2186    4.6913
    38         F       -3.4050    0.6644    3.6195
    39         H        3.4141    2.3648    1.9133
    40         H        2.3103    0.4473    5.6201
    41         H        4.5262    1.0255    6.5747
    42         H        5.6367    2.9315    2.8795
    43         H        6.1876    2.2660    5.2087
    44         O        1.7910    1.5345   -0.6874
    45         O       -0.3483    2.4198    0.4580
    46         C        2.2224    2.7240   -0.7009
    47         C        1.4410    3.8027   -0.2251
    48         C        0.1980    3.5459    0.3272
    49         C        3.5744    2.9671   -1.2374
    50         C       -0.6365    4.7674    0.8501
    51         C        3.9966    2.2757   -2.3695
    52         C        4.4176    3.8845   -0.6164
    53         C        5.6835    4.1154   -1.1393
    54         C        5.2611    2.5175   -2.8923
    55         C        6.1029    3.4371   -2.2784
    56         H        1.8097    4.8235   -0.3181
    57         F        0.0958    5.6867    1.4970
    58         F       -1.2429    5.4390   -0.1424
    59         F       -1.6184    4.4455    1.7036
    60         H        3.3301    1.5473   -2.8461
    61         H        4.0944    4.4169    0.2842
    62         H        6.3498    4.8357   -0.6560
    63         H        5.5914    1.9829   -3.7878
    64         H        7.0979    3.6277   -2.6919
    65         H        3.3546   -0.4346   -0.8751
    66         H        3.4554    0.1157    0.7518
    67         H        3.6344   -3.7459   -0.9425
    68         C        2.7198   -3.1492   -0.7487
    69         C        3.7211   -0.7794    0.1282
    70         C       -0.8741   -4.2415   -0.9825
    71         C       -0.7670   -5.6053   -0.7368
    72         C        0.4747   -6.1642   -0.4631
    73         C        1.6097   -5.3638   -0.4510
    74         C        1.5013   -3.9983   -0.7016
    75         C        0.2510   -3.4244   -0.9515
    76         S        2.9052   -2.2245    0.7578
    77         C        5.1912   -0.9906    0.1094
    78         C        5.8023   -1.5424   -1.0147
    79         C        7.1760   -1.7469   -1.0251
    80         C        7.9429   -1.3972    0.0801
    81         C        7.3348   -0.8329    1.1947
    82         C        5.9614   -0.6249    1.2114
    83         H        0.1449   -2.3308   -1.1686
    84         H       -1.8504   -3.8104   -1.2228
    85         H        0.5613   -7.2372   -0.2667
    86         H        2.5861   -5.8172   -0.2555
    87         H        5.2085   -1.8007   -1.8980
    88         H        7.6552   -2.1786   -1.9091
    89         H        7.9389   -0.5458    2.0606
    90         H        5.4950   -0.1582    2.0860
    91         O        1.5056   -1.6893    0.9199
    92         H       -1.6587   -6.2385   -0.7638
    93         H        9.0248   -1.5591    0.0692
    94         H        2.6557   -2.5079   -1.6588
    95         C       -4.0449   -3.3200    3.2470
    96         C       -2.7720   -3.4172    3.8069
    97         C       -1.6698   -2.9448    3.0979
    98         C       -1.8406   -2.3781    1.8418
    99         C       -3.1108   -2.2818    1.2683
   100         C       -4.2042   -2.7507    1.9946
   101         S       -3.3853   -1.6575   -0.3078
   102         C       -4.1506   -0.1754    0.0145
   103         C       -3.4522    1.0176    0.2071
   104         C       -4.1366    2.2095    0.4131
   105         C       -5.5278    2.2222    0.4413
   106         C       -6.2350    1.0340    0.2478
   107         C       -5.5466   -0.1459    0.0368
   108         H       -5.2120   -2.6639    1.5716
   109         H       -4.9188   -3.6787    3.7992
   110         H       -0.6653   -3.0055    3.5303
   111         H       -0.9164   -2.0262    1.3039
   112         H       -2.3322    1.0524    0.1884
   113         H       -3.5734    3.1371    0.5648
   114         H       -7.3288    1.0332    0.2663
   115         H       -6.1098   -1.0733   -0.1210
   116         O       -1.9908   -1.2331   -0.6922
   117         C       -2.5968   -3.9951    5.1636
   118         C       -6.2474    3.4960    0.6955
   119         H       -1.6089   -4.4565    5.3101
   120         H       -3.3418   -4.7702    5.3980
   121         H       -2.6989   -3.2109    5.9312
   122         H       -7.3016    3.4727    0.3828
   123         H       -6.2378    3.7373    1.7706
   124         H       -5.7846    4.3490    0.1759
 Parameters read in from file: "spk_Eu.inp"


         Parameters read in

      Parameter Type  Element    Parameter
            USS           EU      -20.027949
            UPP           EU       -6.677713
            UDD           EU      -19.683680
            ZS            EU        1.202982
            ZP            EU        1.715870
            ZD            EU        1.243133
            BETAS         EU       -7.675872
            BETAP         EU       -1.930006
            BETAD         EU       -5.248097
            F0SD          EU        8.472867
            G2SD          EU        1.142889
            POC           EU        1.426715
            ALP           EU        1.359469
            ZSN           EU        0.980428
            ZPN           EU        2.163901
            ZDN           EU        1.013954
            FN11          EU        0.584994
            FN21          EU        7.420961
            FN31          EU        1.581873
            FN12          EU        0.100250
            FN22          EU        7.734008
            FN32          EU        3.041049

  H: (RM1): G.B. ROCHA, R.O. FREIRE, A.M.SIMAS, J.J.P. STEWART, J. COMP. CHEM. 27, 1101 (2006)
  C: (RM1): G.B. ROCHA, R.O. FREIRE, A.M.SIMAS, J.J.P. STEWART, J. COMP. CHEM. 27, 1101 (2006)
  O: (RM1): G.B. ROCHA, R.O. FREIRE, A.M.SIMAS, J.J.P. STEWART, J. COMP. CHEM. 27, 1101 (2006)
  F: (RM1): G.B. ROCHA, R.O. FREIRE, A.M.SIMAS, J.J.P. STEWART, J. COMP. CHEM. 27, 1101 (2006)
  S: (RM1): G.B. ROCHA, R.O. FREIRE, A.M.SIMAS, J.J.P. STEWART, J. COMP. CHEM. 27, 1101 (2006)
 Eu: (RM1): Eu com orbitais

           Empirical Formula: C58 H46 O8 Eu F9 S2  =   124 atoms



      MOLECULAR POINT GROUP   :   C1  


      RHF CALCULATION, NO. OF DOUBLY OCCUPIED LEVELS =  202

  SCF CRITERION =    0.1000E-09


          HEAT OF FORMATION =    -748.167642 KCALS/MOLE


          INTERNAL COORDINATE DERIVATIVES

   NUMBER  ATOM       BOND         ANGLE      DIHEDRAL

     1      Eu     -0.011178    -0.028781     0.041842
     2       O     -0.035085    -0.050276    -0.007666
     3       O      0.055638     0.039435    -0.004778
     4       C      0.012225     0.049819     0.014188
     5       C      0.073103     0.043998    -0.021088
     6       C     -0.061350    -0.047522     0.026863
     7       C      0.018151    -0.005554     0.006880
     8       C      0.071379     0.061337    -0.124298
     9       C      0.030558     0.036113     0.047626
    10       C     -0.090721     0.055034     0.019727
    11       C      0.048337    -0.010660     0.019567
    12       C      0.039122    -0.020433    -0.005986
    13       C      0.002094    -0.081787    -0.041011
    14       H     -0.042973    -0.036541     0.003039
    15       F      0.022233     0.011973     0.053142
    16       F     -0.076733    -0.053747     0.060502
    17       F     -0.018262    -0.010858     0.022059
    18       H     -0.034476    -0.018924    -0.015516
    19       H      0.010672    -0.034864    -0.032150
    20       H      0.030636     0.019445     0.027674
    21       H      0.002300     0.000407     0.006139
    22       H     -0.039172     0.027652     0.004626
    23       O     -0.060391    -0.042834    -0.032916
    24       O     -0.027996    -0.034273    -0.025188
    25       C      0.053282     0.092724    -0.018367
    26       C     -0.015879    -0.074536     0.040603
    27       C      0.002817     0.068702     0.004375
    28       C      0.032511    -0.016868     0.062037
    29       C     -0.086903    -0.004289    -0.051587
    30       C     -0.111203     0.026235    -0.078435
    31       C     -0.088612     0.040004    -0.121712
    32       C      0.090921    -0.055164     0.144813
    33       C      0.142862    -0.019238     0.058847
    34       C     -0.017243     0.052275    -0.050840
    35       H      0.016199     0.017428     0.009289
    36       F      0.019208    -0.003550    -0.026907
    37       F     -0.005004    -0.003436     0.024897
    38       F      0.018324    -0.016743     0.086448
    39       H      0.025435     0.006187    -0.013714
    40       H     -0.006455    -0.007368     0.022649
    41       H     -0.040956    -0.017339     0.000148
    42       H     -0.016446    -0.007890     0.012909
    43       H      0.003913    -0.007523    -0.000761
    44       O      0.016826    -0.010719    -0.056690
    45       O      0.002247     0.005761     0.023129
    46       C     -0.050215     0.109778     0.038561
    47       C      0.036332     0.060967    -0.113763
    48       C     -0.010238    -0.092520     0.050194
    49       C      0.014144    -0.040795     0.049173
    50       C     -0.031543    -0.099686     0.037552
    51       C      0.021605     0.006351     0.048857
    52       C     -0.018313    -0.023677    -0.050127
    53       C     -0.019071    -0.030088    -0.021257
    54       C      0.021237     0.045286     0.021457
    55       C     -0.005763     0.052011    -0.015909
    56       H     -0.003507    -0.001297     0.011539
    57       F      0.030179    -0.002145     0.018870
    58       F     -0.041208     0.003591    -0.005859
    59       F      0.046774     0.116350    -0.083179
    60       H     -0.001129    -0.000840    -0.023273
    61       H      0.009788     0.029606     0.005070
    62       H      0.012220     0.000753     0.017809
    63       H     -0.012450    -0.040624    -0.016876
    64       H      0.010101    -0.020819     0.015666
    65       H     -0.023973    -0.004304     0.005962
    66       H     -0.002893    -0.024198    -0.021274
    67       H     -0.010671     0.030722     0.005345
    68       C      0.042642    -0.030469    -0.032337
    69       C      0.033242     0.076805    -0.000115
    70       C      0.028974    -0.058623     0.030028
    71       C     -0.020111     0.028108    -0.002657
    72       C     -0.004127     0.018460    -0.092031
    73       C      0.018192    -0.020822     0.070069
    74       C     -0.105704     0.074926    -0.022279
    75       C      0.092101    -0.068944     0.015539
    76       S      0.014800    -0.019743     0.017187
    77       C      0.053556    -0.036696     0.057009
    78       C      0.023602     0.014482     0.034766
    79       C      0.048539     0.021090     0.038905
    80       C     -0.064913    -0.146363    -0.043517
    81       C      0.040829     0.062428    -0.002680
    82       C     -0.118651    -0.062707    -0.084216
    83       H      0.000490     0.002251     0.012577
    84       H     -0.014559     0.026472    -0.012676
    85       H     -0.006390     0.008019     0.014306
    86       H     -0.005221    -0.020928     0.012707
    87       H     -0.049655    -0.003085    -0.022755
    88       H     -0.006819    -0.004805    -0.001779
    89       H      0.033000    -0.015225     0.022433
    90       H      0.025137     0.054215     0.014533
    91       O     -0.009767     0.002688     0.013116
    92       H     -0.004078    -0.009830     0.030839
    93       H     -0.009599     0.020482    -0.016197
    94       H     -0.021828    -0.011814     0.007563
    95       C      0.033731     0.017084    -0.005556
    96       C      0.012364     0.049119    -0.037637
    97       C      0.012513    -0.055173     0.068341
    98       C      0.036487     0.047163    -0.080664
    99       C     -0.034219    -0.059697     0.066191
   100       C      0.041651     0.090286    -0.056371
   101       S      0.009779     0.021888     0.006106
   102       C      0.054933    -0.061866     0.020857
   103       C     -0.020379     0.012251    -0.051282
   104       C     -0.028370     0.019378     0.020167
   105       C      0.059700    -0.086946    -0.043558
   106       C     -0.041009     0.071003     0.058688
   107       C      0.001154     0.021276    -0.132899
   108       H     -0.007878    -0.001844     0.001673
   109       H     -0.010789    -0.015561     0.021458
   110       H     -0.030432     0.017511    -0.038500
   111       H     -0.003220    -0.022537     0.026276
   112       H      0.011833    -0.008900     0.012178
   113       H      0.003419    -0.001547    -0.019524
   114       H      0.014632    -0.031686     0.012478
   115       H     -0.006604     0.004804     0.048034
   116       O     -0.013904     0.012330    -0.039292
   117       C     -0.009682     0.092571    -0.052408
   118       C     -0.032145     0.081559    -0.043325
   119       H      0.023798    -0.026656    -0.000912
   120       H     -0.006730    -0.008214     0.068078
   121       H     -0.004645    -0.045375    -0.021136
   122       H      0.019926    -0.012569     0.018662
   123       H     -0.003901    -0.013933    -0.006782
   124       H     -0.021059    -0.013329     0.033380
 DIPOLE           X         Y         Z       TOTAL
 POINT-CHG.    -6.759     3.901     9.985    12.673
 HYBRID         1.636    -1.159    -2.857     3.490
 SUM           -5.123     2.742     7.128     9.196


          GRADIENT NORM =   0.82791


          TIME FOR SCF CALCULATION =    2.42

          TIME FOR DERIVATIVES     =    0.27

          MOLECULAR WEIGHT = 1258.07



          ROTATIONAL CONSTANTS IN CM(-1)

          A =    0.00101471   B =    0.00080615   C =    0.00076308



           PRINCIPAL MOMENTS OF INERTIA IN UNITS OF 10**(-40)*GRAM-CM**2

          A =    27587.0315   B =    34723.8836   C =    36683.9908


          ORIENTATION OF MOLECULE IN FORCE CALCULATION

    NO.       ATOM         X         Y         Z

     1         Eu       0.0856    0.0159    0.4217
     2          O       2.5374    0.0159    0.4217
     3          O       1.1752    2.2542    0.4217
     4          C       3.5908    0.7079    0.3840
     5          C       3.5423    2.1278    0.3369
     6          C       2.3259    2.7732    0.3439
     7          C       4.8846    0.0029    0.3704
     8          C       2.3533    4.3418    0.2812
     9          C       5.0171   -1.1555   -0.3916
    10          C       5.9590    0.4908    1.1085
    11          C       7.1741   -0.1814    1.0750
    12          C       6.2386   -1.8170   -0.4273
    13          C       7.3153   -1.3300    0.3040
    14          H       4.4722    2.6911    0.2586
    15          F       2.7431    4.9007    1.4369
    16          F       3.1911    4.8315   -0.6454
    17          F       1.1702    4.9117    0.0017
    18          H       4.1615   -1.5390   -0.9614
    19          H       5.8503    1.3903    1.7229
    20          H       8.0221    0.1962    1.6536
    21          H       6.3505   -2.7207   -1.0336
    22          H       8.2768   -1.8516    0.2735
    23          O      -1.8136   -0.4085   -1.0932
    24          O      -0.9947   -2.2160    0.5374
    25          C      -2.6163   -1.2570   -1.5718
    26          C      -2.6538   -2.5926   -1.1020
    27          C      -1.8052   -2.9642   -0.0779
    28          C      -3.5269   -0.8118   -2.6442
    29          C      -1.8846   -4.4506    0.4099
    30          C      -3.0415    0.0244   -3.6468
    31          C      -4.8557   -1.2245   -2.6500
    32          C      -5.7018   -0.7959   -3.6652
    33          C      -3.8926    0.4457   -4.6607
    34          C      -5.2208    0.0354   -4.6703
    35          H      -3.3115   -3.3209   -1.5749
    36          F      -3.0936   -4.7605    0.9085
    37          F      -1.6745   -5.3418   -0.5697
    38          F      -1.0178   -4.7806    1.3767
    39          H      -1.9889    0.3366   -3.6407
    40          H      -5.2387   -1.8760   -1.8577
    41          H      -6.7472   -1.1185   -3.6761
    42          H      -3.5143    1.0965   -5.4546
    43          H      -5.8883    0.3646   -5.4727
    44          O       0.4660    1.0708   -1.7641
    45          O       0.8641   -1.4587   -1.4239
    46          C       0.7715    0.9098   -2.9814
    47          C       1.1798   -0.3475   -3.4845
    48          C       1.1862   -1.4444   -2.6403
    49          C       0.6986    2.0792   -3.8770
    50          C       1.6389   -2.8234   -3.2363
    51          C       1.1313    3.3206   -3.4192
    52          C       0.2041    1.9382   -5.1708
    53          C       0.1536    3.0440   -6.0097
    54          C       1.0858    4.4210   -4.2663
    55          C       0.5985    4.2824   -5.5603
    56          H       1.5076   -0.4384   -4.5194
    57          F       1.1737   -3.0582   -4.4726
    58          F       2.9740   -2.9258   -3.3401
    59          F       1.2625   -3.8903   -2.5177
    60          H       1.5095    3.4248   -2.3954
    61          H      -0.1530    0.9665   -5.5276
    62          H      -0.2332    2.9389   -7.0274
    63          H       1.4348    5.3955   -3.9122
    64          H       0.5645    5.1495   -6.2269
    65          H      -0.8832    3.0581   -0.9976
    66          H      -2.0004    1.9457   -1.6862
    67          H      -2.3072    4.6063    1.5759
    68          C      -1.8118    3.6139    1.5747
    69          C      -1.9869    2.8565   -1.0298
    70          C      -0.4767    1.6669    4.5055
    71          C      -1.2776    2.1366    5.5398
    72          C      -2.2755    3.0658    5.2756
    73          C      -2.4617    3.5369    3.9824
    74          C      -1.6556    3.0685    2.9480
    75          C      -0.6668    2.1132    3.2020
    76          S      -2.7175    2.4838    0.5443
    77          C      -2.7108    3.9816   -1.6750
    78          C      -2.3112    5.2953   -1.4383
    79          C      -2.9962    6.3452   -2.0362
    80          C      -4.0750    6.0884   -2.8742
    81          C      -4.4632    4.7775   -3.1218
    82          C      -3.7819    3.7227   -2.5276
    83          H       0.0004    1.7343    2.3862
    84          H       0.3245    0.9544    4.7229
    85          H      -2.9091    3.4352    6.0877
    86          H      -3.2363    4.2849    3.7883
    87          H      -1.4488    5.5054   -0.7967
    88          H      -2.6804    7.3764   -1.8511
    89          H      -5.3045    4.5735   -3.7909
    90          H      -4.0816    2.6921   -2.7476
    91          O      -2.0068    1.1948    0.8680
    92          H      -1.1191    1.7786    6.5613
    93          H      -4.6127    6.9173   -3.3440
    94          H      -0.7955    3.8548    1.1839
    95          C      -2.0653   -3.4293    5.0510
    96          C      -3.1166   -2.8308    4.3582
    97          C      -2.8473   -1.8250    3.4327
    98          C      -1.5382   -1.4242    3.2010
    99          C      -0.4777   -2.0123    3.8946
   100          C      -0.7632   -3.0236    4.8104
   101          S       1.1562   -1.5171    3.7089
   102          C       1.8446   -2.8319    2.8822
   103          C       1.8687   -2.9294    1.4900
   104          C       2.4954   -4.0035    0.8695
   105          C       3.0956   -5.0002    1.6329
   106          C       3.0781   -4.9103    3.0261
   107          C       2.4586   -3.8351    3.6350
   108          H       0.0569   -3.5133    5.3486
   109          H      -2.2644   -4.2271    5.7729
   110          H      -3.6628   -1.3535    2.8738
   111          H      -1.3756   -0.5969    2.4551
   112          H       1.4007   -2.1472    0.8380
   113          H       2.5036   -4.0664   -0.2244
   114          H       3.5486   -5.6874    3.6355
   115          H       2.4553   -3.7687    4.7294
   116          O       1.0172   -0.4800    2.6237
   117          C      -4.5124   -3.2838    4.5854
   118          C       3.7330   -6.1601    0.9594
   119          H      -5.2563   -2.4956    4.3969
   120          H      -4.6855   -3.6378    5.6128
   121          H      -4.7587   -4.1214    3.9128
   122          H       4.4407   -6.7041    1.6018
   123          H       2.9700   -6.8867    0.6368
   124          H       4.2906   -5.8655    0.0571


    FIRST DERIVATIVES WILL BE USED IN THE CALCULATION OF SECOND DERIVATIVES

          ESTIMATED TIME TO COMPLETE CALCULATION =     3999.00 SECONDS

    FOR POINT-GROUP C1   THERE ARE   1 UNIQUE SYMMETRY FUNCTIONS.

 STEP:   1 TIME =     4.94 SECS, INTEGRAL =      4.94 TIME LEFT: 863992.38
 STEP:   2 TIME =     6.17 SECS, INTEGRAL =     11.11 TIME LEFT: 863986.20
 STEP:   3 TIME =     5.11 SECS, INTEGRAL =     16.22 TIME LEFT: 863981.09
 STEP:   4 TIME =     6.47 SECS, INTEGRAL =     22.69 TIME LEFT: 863974.62
 STEP:   5 TIME =     6.19 SECS, INTEGRAL =     28.88 TIME LEFT: 863968.44
 STEP:   6 TIME =     7.20 SECS, INTEGRAL =     36.08 TIME LEFT: 863961.23
 STEP:   7 TIME =     6.72 SECS, INTEGRAL =     42.80 TIME LEFT: 863954.52
 STEP:   8 TIME =     6.39 SECS, INTEGRAL =     49.19 TIME LEFT: 863948.12
 STEP:   9 TIME =     6.50 SECS, INTEGRAL =     55.69 TIME LEFT: 863941.62
 STEP:  10 TIME =     6.88 SECS, INTEGRAL =     62.56 TIME LEFT: 863934.75
 STEP:  11 TIME =     7.64 SECS, INTEGRAL =     70.20 TIME LEFT: 863927.11
 STEP:  12 TIME =     6.27 SECS, INTEGRAL =     76.47 TIME LEFT: 863920.84
 STEP:  13 TIME =     6.42 SECS, INTEGRAL =     82.89 TIME LEFT: 863914.42
 STEP:  14 TIME =     7.66 SECS, INTEGRAL =     90.55 TIME LEFT: 863906.77
 STEP:  15 TIME =     8.41 SECS, INTEGRAL =     98.95 TIME LEFT: 863898.36
 STEP:  16 TIME =     7.23 SECS, INTEGRAL =    106.19 TIME LEFT: 863891.12
 STEP:  17 TIME =     9.89 SECS, INTEGRAL =    116.08 TIME LEFT: 863881.23
 STEP:  18 TIME =    10.06 SECS, INTEGRAL =    126.14 TIME LEFT: 863871.17
 STEP:  19 TIME =     9.17 SECS, INTEGRAL =    135.31 TIME LEFT: 863862.00
 STEP:  20 TIME =    11.47 SECS, INTEGRAL =    146.78 TIME LEFT: 863850.53
 STEP:  21 TIME =    11.69 SECS, INTEGRAL =    158.47 TIME LEFT: 863838.84
 STEP:  22 TIME =     5.41 SECS, INTEGRAL =    163.88 TIME LEFT: 863833.44
 STEP:  23 TIME =     5.00 SECS, INTEGRAL =    168.88 TIME LEFT: 863828.44
 STEP:  24 TIME =     5.75 SECS, INTEGRAL =    174.62 TIME LEFT: 863822.69
 STEP:  25 TIME =    11.23 SECS, INTEGRAL =    185.86 TIME LEFT: 863811.45
 STEP:  26 TIME =    11.73 SECS, INTEGRAL =    197.59 TIME LEFT: 863799.72
 STEP:  27 TIME =     9.94 SECS, INTEGRAL =    207.53 TIME LEFT: 863789.78
 STEP:  28 TIME =    12.81 SECS, INTEGRAL =    220.34 TIME LEFT: 863776.97
 STEP:  29 TIME =     7.39 SECS, INTEGRAL =    227.73 TIME LEFT: 863769.58
 STEP:  30 TIME =     9.23 SECS, INTEGRAL =    236.97 TIME LEFT: 863760.34
 STEP:  31 TIME =    11.45 SECS, INTEGRAL =    248.42 TIME LEFT: 863748.89
 STEP:  32 TIME =    12.47 SECS, INTEGRAL =    260.89 TIME LEFT: 863736.42
 STEP:  33 TIME =    10.83 SECS, INTEGRAL =    271.72 TIME LEFT: 863725.59
 STEP:  34 TIME =    13.83 SECS, INTEGRAL =    285.55 TIME LEFT: 863711.77
 STEP:  35 TIME =     7.61 SECS, INTEGRAL =    293.16 TIME LEFT: 863704.16
 STEP:  36 TIME =    10.19 SECS, INTEGRAL =    303.34 TIME LEFT: 863693.97
 STEP:  37 TIME =    10.34 SECS, INTEGRAL =    313.69 TIME LEFT: 863683.62
 STEP:  38 TIME =    13.33 SECS, INTEGRAL =    327.02 TIME LEFT: 863670.30
 STEP:  39 TIME =    14.03 SECS, INTEGRAL =    341.05 TIME LEFT: 863656.27
 STEP:  40 TIME =     6.58 SECS, INTEGRAL =    347.62 TIME LEFT: 863649.69
 STEP:  41 TIME =     5.12 SECS, INTEGRAL =    352.75 TIME LEFT: 863644.56
 STEP:  42 TIME =     6.95 SECS, INTEGRAL =    359.70 TIME LEFT: 863637.61
 STEP:  43 TIME =     5.50 SECS, INTEGRAL =    365.20 TIME LEFT: 863632.11
 STEP:  44 TIME =     6.12 SECS, INTEGRAL =    371.33 TIME LEFT: 863625.98
 STEP:  45 TIME =     4.73 SECS, INTEGRAL =    376.06 TIME LEFT: 863621.25
 STEP:  46 TIME =     4.91 SECS, INTEGRAL =    380.97 TIME LEFT: 863616.34
 STEP:  47 TIME =     5.89 SECS, INTEGRAL =    386.86 TIME LEFT: 863610.45
 STEP:  48 TIME =     4.92 SECS, INTEGRAL =    391.78 TIME LEFT: 863605.53
 STEP:  49 TIME =     4.44 SECS, INTEGRAL =    396.22 TIME LEFT: 863601.09
 STEP:  50 TIME =     4.97 SECS, INTEGRAL =    401.19 TIME LEFT: 863596.12
 STEP:  51 TIME =     5.95 SECS, INTEGRAL =    407.14 TIME LEFT: 863590.17
 STEP:  52 TIME =     5.52 SECS, INTEGRAL =    412.66 TIME LEFT: 863584.66
 STEP:  53 TIME =     6.36 SECS, INTEGRAL =    419.02 TIME LEFT: 863578.30
 STEP:  54 TIME =     6.38 SECS, INTEGRAL =    425.39 TIME LEFT: 863571.92
 STEP:  55 TIME =     5.84 SECS, INTEGRAL =    431.23 TIME LEFT: 863566.08
 STEP:  56 TIME =     5.92 SECS, INTEGRAL =    437.16 TIME LEFT: 863560.16
 STEP:  57 TIME =     6.25 SECS, INTEGRAL =    443.41 TIME LEFT: 863553.91
 STEP:  58 TIME =     5.42 SECS, INTEGRAL =    448.83 TIME LEFT: 863548.48
 STEP:  59 TIME =     6.56 SECS, INTEGRAL =    455.39 TIME LEFT: 863541.92
 STEP:  60 TIME =     6.23 SECS, INTEGRAL =    461.62 TIME LEFT: 863535.69
 STEP:  61 TIME =     5.61 SECS, INTEGRAL =    467.23 TIME LEFT: 863530.08
 STEP:  62 TIME =     6.09 SECS, INTEGRAL =    473.33 TIME LEFT: 863523.98
 STEP:  63 TIME =     6.12 SECS, INTEGRAL =    479.45 TIME LEFT: 863517.86
 STEP:  64 TIME =     5.94 SECS, INTEGRAL =    485.39 TIME LEFT: 863511.92
 STEP:  65 TIME =     5.95 SECS, INTEGRAL =    491.34 TIME LEFT: 863505.97
 STEP:  66 TIME =     6.03 SECS, INTEGRAL =    497.38 TIME LEFT: 863499.94
 STEP:  67 TIME =     6.86 SECS, INTEGRAL =    504.23 TIME LEFT: 863493.08
 STEP:  68 TIME =     6.84 SECS, INTEGRAL =    511.08 TIME LEFT: 863486.23
 STEP:  69 TIME =     7.22 SECS, INTEGRAL =    518.30 TIME LEFT: 863479.02
 STEP:  70 TIME =     7.25 SECS, INTEGRAL =    525.55 TIME LEFT: 863471.77
 STEP:  71 TIME =     8.62 SECS, INTEGRAL =    534.17 TIME LEFT: 863463.14
 STEP:  72 TIME =     6.78 SECS, INTEGRAL =    540.95 TIME LEFT: 863456.36
 STEP:  73 TIME =     6.66 SECS, INTEGRAL =    547.61 TIME LEFT: 863449.70
 STEP:  74 TIME =     8.67 SECS, INTEGRAL =    556.28 TIME LEFT: 863441.03
 STEP:  75 TIME =     7.36 SECS, INTEGRAL =    563.64 TIME LEFT: 863433.67
 STEP:  76 TIME =     7.89 SECS, INTEGRAL =    571.53 TIME LEFT: 863425.78
 STEP:  77 TIME =     9.69 SECS, INTEGRAL =    581.22 TIME LEFT: 863416.09
 STEP:  78 TIME =     7.83 SECS, INTEGRAL =    589.05 TIME LEFT: 863408.27
 STEP:  79 TIME =     8.02 SECS, INTEGRAL =    597.06 TIME LEFT: 863400.25
 STEP:  80 TIME =     6.25 SECS, INTEGRAL =    603.31 TIME LEFT: 863394.00
 STEP:  81 TIME =     7.73 SECS, INTEGRAL =    611.05 TIME LEFT: 863386.27
 STEP:  82 TIME =    12.70 SECS, INTEGRAL =    623.75 TIME LEFT: 863373.56
 STEP:  83 TIME =    12.38 SECS, INTEGRAL =    636.12 TIME LEFT: 863361.19
 STEP:  84 TIME =    10.20 SECS, INTEGRAL =    646.33 TIME LEFT: 863350.98
 STEP:  85 TIME =     6.45 SECS, INTEGRAL =    652.78 TIME LEFT: 863344.53
 STEP:  86 TIME =     5.59 SECS, INTEGRAL =    658.38 TIME LEFT: 863338.94
 STEP:  87 TIME =     5.84 SECS, INTEGRAL =    664.22 TIME LEFT: 863333.09
 STEP:  88 TIME =     8.56 SECS, INTEGRAL =    672.78 TIME LEFT: 863324.53
 STEP:  89 TIME =    11.80 SECS, INTEGRAL =    684.58 TIME LEFT: 863312.73
 STEP:  90 TIME =    13.44 SECS, INTEGRAL =    698.02 TIME LEFT: 863299.30
 STEP:  91 TIME =    13.78 SECS, INTEGRAL =    711.80 TIME LEFT: 863285.52
 STEP:  92 TIME =     6.28 SECS, INTEGRAL =    718.08 TIME LEFT: 863279.23
 STEP:  93 TIME =    11.11 SECS, INTEGRAL =    729.19 TIME LEFT: 863268.12
 STEP:  94 TIME =     8.33 SECS, INTEGRAL =    737.52 TIME LEFT: 863259.80
 STEP:  95 TIME =    13.02 SECS, INTEGRAL =    750.53 TIME LEFT: 863246.78
 STEP:  96 TIME =    14.16 SECS, INTEGRAL =    764.69 TIME LEFT: 863232.62
 STEP:  97 TIME =    14.34 SECS, INTEGRAL =    779.03 TIME LEFT: 863218.28
 STEP:  98 TIME =     7.23 SECS, INTEGRAL =    786.27 TIME LEFT: 863211.05
 STEP:  99 TIME =    12.69 SECS, INTEGRAL =    798.95 TIME LEFT: 863198.36
 STEP: 100 TIME =    13.92 SECS, INTEGRAL =    812.88 TIME LEFT: 863184.44
 STEP: 101 TIME =    12.17 SECS, INTEGRAL =    825.05 TIME LEFT: 863172.27
 STEP: 102 TIME =    12.41 SECS, INTEGRAL =    837.45 TIME LEFT: 863159.86
 STEP: 103 TIME =     6.86 SECS, INTEGRAL =    844.31 TIME LEFT: 863153.00
 STEP: 104 TIME =     4.73 SECS, INTEGRAL =    849.05 TIME LEFT: 863148.27
 STEP: 105 TIME =     5.58 SECS, INTEGRAL =    854.62 TIME LEFT: 863142.69
 STEP: 106 TIME =     5.06 SECS, INTEGRAL =    859.69 TIME LEFT: 863137.62
 STEP: 107 TIME =     6.89 SECS, INTEGRAL =    866.58 TIME LEFT: 863130.73
 STEP: 108 TIME =     5.45 SECS, INTEGRAL =    872.03 TIME LEFT: 863125.28
 STEP: 109 TIME =     6.02 SECS, INTEGRAL =    878.05 TIME LEFT: 863119.27
 STEP: 110 TIME =     5.86 SECS, INTEGRAL =    883.91 TIME LEFT: 863113.41
 STEP: 111 TIME =     4.84 SECS, INTEGRAL =    888.75 TIME LEFT: 863108.56
 STEP: 112 TIME =     4.95 SECS, INTEGRAL =    893.70 TIME LEFT: 863103.61
 STEP: 113 TIME =     6.09 SECS, INTEGRAL =    899.80 TIME LEFT: 863097.52
 STEP: 114 TIME =     5.12 SECS, INTEGRAL =    904.92 TIME LEFT: 863092.39
 STEP: 115 TIME =     6.12 SECS, INTEGRAL =    911.05 TIME LEFT: 863086.27
 STEP: 116 TIME =     6.86 SECS, INTEGRAL =    917.91 TIME LEFT: 863079.41
 STEP: 117 TIME =     7.48 SECS, INTEGRAL =    925.39 TIME LEFT: 863071.92
 STEP: 118 TIME =     6.28 SECS, INTEGRAL =    931.67 TIME LEFT: 863065.64
 STEP: 119 TIME =     6.08 SECS, INTEGRAL =    937.75 TIME LEFT: 863059.56
 STEP: 120 TIME =     6.05 SECS, INTEGRAL =    943.80 TIME LEFT: 863053.52
 STEP: 121 TIME =     6.03 SECS, INTEGRAL =    949.83 TIME LEFT: 863047.48
 STEP: 122 TIME =     6.89 SECS, INTEGRAL =    956.72 TIME LEFT: 863040.59
 STEP: 123 TIME =     7.44 SECS, INTEGRAL =    964.16 TIME LEFT: 863033.16
 STEP: 124 TIME =     6.09 SECS, INTEGRAL =    970.25 TIME LEFT: 863027.06
 STEP: 125 TIME =     6.33 SECS, INTEGRAL =    976.58 TIME LEFT: 863020.73
 STEP: 126 TIME =     6.53 SECS, INTEGRAL =    983.11 TIME LEFT: 863014.20
 STEP: 127 TIME =     6.34 SECS, INTEGRAL =    989.45 TIME LEFT: 863007.86
 STEP: 128 TIME =     7.05 SECS, INTEGRAL =    996.50 TIME LEFT: 863000.81
 STEP: 129 TIME =     5.95 SECS, INTEGRAL =   1002.45 TIME LEFT: 862994.86
 STEP: 130 TIME =     8.00 SECS, INTEGRAL =   1010.45 TIME LEFT: 862986.86
 STEP: 131 TIME =     6.70 SECS, INTEGRAL =   1017.16 TIME LEFT: 862980.16
 STEP: 132 TIME =     8.91 SECS, INTEGRAL =   1026.06 TIME LEFT: 862971.25
 STEP: 133 TIME =     8.53 SECS, INTEGRAL =   1034.59 TIME LEFT: 862962.72
 STEP: 134 TIME =     8.47 SECS, INTEGRAL =   1043.06 TIME LEFT: 862954.25
 STEP: 135 TIME =     9.55 SECS, INTEGRAL =   1052.61 TIME LEFT: 862944.70
 STEP: 136 TIME =     8.36 SECS, INTEGRAL =   1060.97 TIME LEFT: 862936.34
 STEP: 137 TIME =     9.02 SECS, INTEGRAL =   1069.98 TIME LEFT: 862927.33
 STEP: 138 TIME =     9.11 SECS, INTEGRAL =   1079.09 TIME LEFT: 862918.22
 STEP: 139 TIME =     8.86 SECS, INTEGRAL =   1087.95 TIME LEFT: 862909.36
 STEP: 140 TIME =    11.08 SECS, INTEGRAL =   1099.03 TIME LEFT: 862898.28
 STEP: 141 TIME =     6.45 SECS, INTEGRAL =   1105.48 TIME LEFT: 862891.83
 STEP: 142 TIME =     7.44 SECS, INTEGRAL =   1112.92 TIME LEFT: 862884.39
 STEP: 143 TIME =     8.80 SECS, INTEGRAL =   1121.72 TIME LEFT: 862875.59
 STEP: 144 TIME =    10.53 SECS, INTEGRAL =   1132.25 TIME LEFT: 862865.06
 STEP: 145 TIME =    14.28 SECS, INTEGRAL =   1146.53 TIME LEFT: 862850.78
 STEP: 146 TIME =    14.56 SECS, INTEGRAL =   1161.09 TIME LEFT: 862836.22
 STEP: 147 TIME =    15.23 SECS, INTEGRAL =   1176.33 TIME LEFT: 862820.98
 STEP: 148 TIME =     8.45 SECS, INTEGRAL =   1184.78 TIME LEFT: 862812.53
 STEP: 149 TIME =     6.27 SECS, INTEGRAL =   1191.05 TIME LEFT: 862806.27
 STEP: 150 TIME =     5.62 SECS, INTEGRAL =   1196.67 TIME LEFT: 862800.64
 STEP: 151 TIME =    11.70 SECS, INTEGRAL =   1208.38 TIME LEFT: 862788.94
 STEP: 152 TIME =    16.19 SECS, INTEGRAL =   1224.56 TIME LEFT: 862772.75
 STEP: 153 TIME =     9.38 SECS, INTEGRAL =   1233.94 TIME LEFT: 862763.38
 STEP: 154 TIME =    11.66 SECS, INTEGRAL =   1245.59 TIME LEFT: 862751.72
 STEP: 155 TIME =    10.20 SECS, INTEGRAL =   1255.80 TIME LEFT: 862741.52
 STEP: 156 TIME =    13.81 SECS, INTEGRAL =   1269.61 TIME LEFT: 862727.70
 STEP: 157 TIME =     9.86 SECS, INTEGRAL =   1279.47 TIME LEFT: 862717.84
 STEP: 158 TIME =    13.94 SECS, INTEGRAL =   1293.41 TIME LEFT: 862703.91
 STEP: 159 TIME =     8.42 SECS, INTEGRAL =   1301.83 TIME LEFT: 862695.48
 STEP: 160 TIME =    10.95 SECS, INTEGRAL =   1312.78 TIME LEFT: 862684.53
 STEP: 161 TIME =    10.86 SECS, INTEGRAL =   1323.64 TIME LEFT: 862673.67
 STEP: 162 TIME =    13.91 SECS, INTEGRAL =   1337.55 TIME LEFT: 862659.77
 STEP: 163 TIME =    12.03 SECS, INTEGRAL =   1349.58 TIME LEFT: 862647.73
 STEP: 164 TIME =    12.92 SECS, INTEGRAL =   1362.50 TIME LEFT: 862634.81
 STEP: 165 TIME =    13.22 SECS, INTEGRAL =   1375.72 TIME LEFT: 862621.59
 STEP: 166 TIME =     7.08 SECS, INTEGRAL =   1382.80 TIME LEFT: 862614.52
 STEP: 167 TIME =     6.25 SECS, INTEGRAL =   1389.05 TIME LEFT: 862608.27
 STEP: 168 TIME =     4.67 SECS, INTEGRAL =   1393.72 TIME LEFT: 862603.59
 STEP: 169 TIME =     5.44 SECS, INTEGRAL =   1399.16 TIME LEFT: 862598.16
 STEP: 170 TIME =     6.44 SECS, INTEGRAL =   1405.59 TIME LEFT: 862591.72
 STEP: 171 TIME =     4.94 SECS, INTEGRAL =   1410.53 TIME LEFT: 862586.78
 STEP: 172 TIME =     4.84 SECS, INTEGRAL =   1415.38 TIME LEFT: 862581.94
 STEP: 173 TIME =     7.28 SECS, INTEGRAL =   1422.66 TIME LEFT: 862574.66
 STEP: 174 TIME =     7.09 SECS, INTEGRAL =   1429.75 TIME LEFT: 862567.56
 STEP: 175 TIME =     5.77 SECS, INTEGRAL =   1435.52 TIME LEFT: 862561.80
 STEP: 176 TIME =     4.72 SECS, INTEGRAL =   1440.23 TIME LEFT: 862557.08
 STEP: 177 TIME =     4.17 SECS, INTEGRAL =   1444.41 TIME LEFT: 862552.91
 STEP: 178 TIME =     6.33 SECS, INTEGRAL =   1450.73 TIME LEFT: 862546.58
 STEP: 179 TIME =     6.09 SECS, INTEGRAL =   1456.83 TIME LEFT: 862540.48
 STEP: 180 TIME =     5.69 SECS, INTEGRAL =   1462.52 TIME LEFT: 862534.80
 STEP: 181 TIME =     6.33 SECS, INTEGRAL =   1468.84 TIME LEFT: 862528.47
 STEP: 182 TIME =     5.64 SECS, INTEGRAL =   1474.48 TIME LEFT: 862522.83
 STEP: 183 TIME =     5.56 SECS, INTEGRAL =   1480.05 TIME LEFT: 862517.27
 STEP: 184 TIME =     6.31 SECS, INTEGRAL =   1486.36 TIME LEFT: 862510.95
 STEP: 185 TIME =     6.67 SECS, INTEGRAL =   1493.03 TIME LEFT: 862504.28
 STEP: 186 TIME =     5.61 SECS, INTEGRAL =   1498.64 TIME LEFT: 862498.67
 STEP: 187 TIME =     6.08 SECS, INTEGRAL =   1504.72 TIME LEFT: 862492.59
 STEP: 188 TIME =     5.55 SECS, INTEGRAL =   1510.27 TIME LEFT: 862487.05
 STEP: 189 TIME =     5.77 SECS, INTEGRAL =   1516.03 TIME LEFT: 862481.28
 STEP: 190 TIME =     5.98 SECS, INTEGRAL =   1522.02 TIME LEFT: 862475.30
 STEP: 191 TIME =     6.03 SECS, INTEGRAL =   1528.05 TIME LEFT: 862469.27
 STEP: 192 TIME =     5.62 SECS, INTEGRAL =   1533.67 TIME LEFT: 862463.64
 STEP: 193 TIME =     4.48 SECS, INTEGRAL =   1538.16 TIME LEFT: 862459.16
 STEP: 194 TIME =     5.47 SECS, INTEGRAL =   1543.62 TIME LEFT: 862453.69
 STEP: 195 TIME =     6.61 SECS, INTEGRAL =   1550.23 TIME LEFT: 862447.08
 STEP: 196 TIME =     6.94 SECS, INTEGRAL =   1557.17 TIME LEFT: 862440.14
 STEP: 197 TIME =     5.02 SECS, INTEGRAL =   1562.19 TIME LEFT: 862435.12
 STEP: 198 TIME =     5.42 SECS, INTEGRAL =   1567.61 TIME LEFT: 862429.70
 STEP: 199 TIME =     5.39 SECS, INTEGRAL =   1573.00 TIME LEFT: 862424.31
 STEP: 200 TIME =     4.70 SECS, INTEGRAL =   1577.70 TIME LEFT: 862419.61
 STEP: 201 TIME =     5.77 SECS, INTEGRAL =   1583.47 TIME LEFT: 862413.84
 STEP: 202 TIME =     5.97 SECS, INTEGRAL =   1589.44 TIME LEFT: 862407.88
 STEP: 203 TIME =     6.25 SECS, INTEGRAL =   1595.69 TIME LEFT: 862401.62
 STEP: 204 TIME =     5.94 SECS, INTEGRAL =   1601.62 TIME LEFT: 862395.69
 STEP: 205 TIME =     6.55 SECS, INTEGRAL =   1608.17 TIME LEFT: 862389.14
 STEP: 206 TIME =     6.06 SECS, INTEGRAL =   1614.23 TIME LEFT: 862383.08
 STEP: 207 TIME =     8.05 SECS, INTEGRAL =   1622.28 TIME LEFT: 862375.03
 STEP: 208 TIME =     9.72 SECS, INTEGRAL =   1632.00 TIME LEFT: 862365.31
 STEP: 209 TIME =     6.44 SECS, INTEGRAL =   1638.44 TIME LEFT: 862358.88
 STEP: 210 TIME =    13.84 SECS, INTEGRAL =   1652.28 TIME LEFT: 862345.03
 STEP: 211 TIME =    12.91 SECS, INTEGRAL =   1665.19 TIME LEFT: 862332.12
 STEP: 212 TIME =    12.72 SECS, INTEGRAL =   1677.91 TIME LEFT: 862319.41
 STEP: 213 TIME =    10.98 SECS, INTEGRAL =   1688.89 TIME LEFT: 862308.42
 STEP: 214 TIME =    11.19 SECS, INTEGRAL =   1700.08 TIME LEFT: 862297.23
 STEP: 215 TIME =    11.45 SECS, INTEGRAL =   1711.53 TIME LEFT: 862285.78
 STEP: 216 TIME =    11.52 SECS, INTEGRAL =   1723.05 TIME LEFT: 862274.27
 STEP: 217 TIME =     9.66 SECS, INTEGRAL =   1732.70 TIME LEFT: 862264.61
 STEP: 218 TIME =     7.03 SECS, INTEGRAL =   1739.73 TIME LEFT: 862257.58
 STEP: 219 TIME =    13.95 SECS, INTEGRAL =   1753.69 TIME LEFT: 862243.62
 STEP: 220 TIME =    13.03 SECS, INTEGRAL =   1766.72 TIME LEFT: 862230.59
 STEP: 221 TIME =    11.55 SECS, INTEGRAL =   1778.27 TIME LEFT: 862219.05
 STEP: 222 TIME =    10.36 SECS, INTEGRAL =   1788.62 TIME LEFT: 862208.69
 STEP: 223 TIME =    12.09 SECS, INTEGRAL =   1800.72 TIME LEFT: 862196.59
 STEP: 224 TIME =    12.09 SECS, INTEGRAL =   1812.81 TIME LEFT: 862184.50
 STEP: 225 TIME =    13.80 SECS, INTEGRAL =   1826.61 TIME LEFT: 862170.70
 STEP: 226 TIME =     8.42 SECS, INTEGRAL =   1835.03 TIME LEFT: 862162.28
 STEP: 227 TIME =     6.88 SECS, INTEGRAL =   1841.91 TIME LEFT: 862155.41
 STEP: 228 TIME =     6.73 SECS, INTEGRAL =   1848.64 TIME LEFT: 862148.67
 STEP: 229 TIME =    14.38 SECS, INTEGRAL =   1863.02 TIME LEFT: 862134.30
 STEP: 230 TIME =    14.69 SECS, INTEGRAL =   1877.70 TIME LEFT: 862119.61
 STEP: 231 TIME =    13.72 SECS, INTEGRAL =   1891.42 TIME LEFT: 862105.89
 STEP: 232 TIME =    11.33 SECS, INTEGRAL =   1902.75 TIME LEFT: 862094.56
 STEP: 233 TIME =    18.14 SECS, INTEGRAL =   1920.89 TIME LEFT: 862076.42
 STEP: 234 TIME =    10.45 SECS, INTEGRAL =   1931.34 TIME LEFT: 862065.97
 STEP: 235 TIME =    15.42 SECS, INTEGRAL =   1946.77 TIME LEFT: 862050.55
 STEP: 236 TIME =    11.27 SECS, INTEGRAL =   1958.03 TIME LEFT: 862039.28
 STEP: 237 TIME =    14.08 SECS, INTEGRAL =   1972.11 TIME LEFT: 862025.20
 STEP: 238 TIME =    14.16 SECS, INTEGRAL =   1986.27 TIME LEFT: 862011.05
 STEP: 239 TIME =    15.11 SECS, INTEGRAL =   2001.38 TIME LEFT: 861995.94
 STEP: 240 TIME =    13.62 SECS, INTEGRAL =   2015.00 TIME LEFT: 861982.31
 STEP: 241 TIME =     9.83 SECS, INTEGRAL =   2024.83 TIME LEFT: 861972.48
 STEP: 242 TIME =    16.22 SECS, INTEGRAL =   2041.05 TIME LEFT: 861956.27
 STEP: 243 TIME =     9.91 SECS, INTEGRAL =   2050.95 TIME LEFT: 861946.36
 STEP: 244 TIME =    15.25 SECS, INTEGRAL =   2066.20 TIME LEFT: 861931.11
 STEP: 245 TIME =    10.64 SECS, INTEGRAL =   2076.84 TIME LEFT: 861920.47
 STEP: 246 TIME =    13.89 SECS, INTEGRAL =   2090.73 TIME LEFT: 861906.58
 STEP: 247 TIME =     7.16 SECS, INTEGRAL =   2097.89 TIME LEFT: 861899.42
 STEP: 248 TIME =     6.66 SECS, INTEGRAL =   2104.55 TIME LEFT: 861892.77
 STEP: 249 TIME =     6.19 SECS, INTEGRAL =   2110.73 TIME LEFT: 861886.58
 STEP: 250 TIME =     6.30 SECS, INTEGRAL =   2117.03 TIME LEFT: 861880.28
 STEP: 251 TIME =     6.64 SECS, INTEGRAL =   2123.67 TIME LEFT: 861873.64
 STEP: 252 TIME =     5.73 SECS, INTEGRAL =   2129.41 TIME LEFT: 861867.91
 STEP: 253 TIME =     6.08 SECS, INTEGRAL =   2135.48 TIME LEFT: 861861.83
 STEP: 254 TIME =     6.59 SECS, INTEGRAL =   2142.08 TIME LEFT: 861855.23
 STEP: 255 TIME =     5.77 SECS, INTEGRAL =   2147.84 TIME LEFT: 861849.47
 STEP: 256 TIME =     6.44 SECS, INTEGRAL =   2154.28 TIME LEFT: 861843.03
 STEP: 257 TIME =     5.94 SECS, INTEGRAL =   2160.22 TIME LEFT: 861837.09
 STEP: 258 TIME =     6.28 SECS, INTEGRAL =   2166.50 TIME LEFT: 861830.81
 STEP: 259 TIME =     6.00 SECS, INTEGRAL =   2172.50 TIME LEFT: 861824.81
 STEP: 260 TIME =     6.64 SECS, INTEGRAL =   2179.14 TIME LEFT: 861818.17
 STEP: 261 TIME =     7.56 SECS, INTEGRAL =   2186.70 TIME LEFT: 861810.61
 STEP: 262 TIME =     6.78 SECS, INTEGRAL =   2193.48 TIME LEFT: 861803.83
 STEP: 263 TIME =     6.20 SECS, INTEGRAL =   2199.69 TIME LEFT: 861797.62
 STEP: 264 TIME =     7.33 SECS, INTEGRAL =   2207.02 TIME LEFT: 861790.30
 STEP: 265 TIME =     6.97 SECS, INTEGRAL =   2213.98 TIME LEFT: 861783.33
 STEP: 266 TIME =     6.62 SECS, INTEGRAL =   2220.61 TIME LEFT: 861776.70
 STEP: 267 TIME =     6.59 SECS, INTEGRAL =   2227.20 TIME LEFT: 861770.11
 STEP: 268 TIME =     6.67 SECS, INTEGRAL =   2233.88 TIME LEFT: 861763.44
 STEP: 269 TIME =     6.58 SECS, INTEGRAL =   2240.45 TIME LEFT: 861756.86
 STEP: 270 TIME =     6.30 SECS, INTEGRAL =   2246.75 TIME LEFT: 861750.56
 STEP: 271 TIME =     8.42 SECS, INTEGRAL =   2255.17 TIME LEFT: 861742.14
 STEP: 272 TIME =     9.98 SECS, INTEGRAL =   2265.16 TIME LEFT: 861732.16
 STEP: 273 TIME =     7.67 SECS, INTEGRAL =   2272.83 TIME LEFT: 861724.48
 STEP: 274 TIME =     6.66 SECS, INTEGRAL =   2279.48 TIME LEFT: 861717.83
 STEP: 275 TIME =     6.72 SECS, INTEGRAL =   2286.20 TIME LEFT: 861711.11
 STEP: 276 TIME =     5.95 SECS, INTEGRAL =   2292.16 TIME LEFT: 861705.16
 STEP: 277 TIME =     6.88 SECS, INTEGRAL =   2299.03 TIME LEFT: 861698.28
 STEP: 278 TIME =     6.08 SECS, INTEGRAL =   2305.11 TIME LEFT: 861692.20
 STEP: 279 TIME =     6.59 SECS, INTEGRAL =   2311.70 TIME LEFT: 861685.61
 STEP: 280 TIME =     4.94 SECS, INTEGRAL =   2316.64 TIME LEFT: 861680.67
 STEP: 281 TIME =     6.00 SECS, INTEGRAL =   2322.64 TIME LEFT: 861674.67
 STEP: 282 TIME =     5.67 SECS, INTEGRAL =   2328.31 TIME LEFT: 861669.00
 STEP: 283 TIME =    14.66 SECS, INTEGRAL =   2342.97 TIME LEFT: 861654.34
 STEP: 284 TIME =     9.05 SECS, INTEGRAL =   2352.02 TIME LEFT: 861645.30
 STEP: 285 TIME =    10.61 SECS, INTEGRAL =   2362.62 TIME LEFT: 861634.69
 STEP: 286 TIME =    11.11 SECS, INTEGRAL =   2373.73 TIME LEFT: 861623.58
 STEP: 287 TIME =    12.53 SECS, INTEGRAL =   2386.27 TIME LEFT: 861611.05
 STEP: 288 TIME =    11.98 SECS, INTEGRAL =   2398.25 TIME LEFT: 861599.06
 STEP: 289 TIME =    12.33 SECS, INTEGRAL =   2410.58 TIME LEFT: 861586.73
 STEP: 290 TIME =    11.95 SECS, INTEGRAL =   2422.53 TIME LEFT: 861574.78
 STEP: 291 TIME =    10.95 SECS, INTEGRAL =   2433.48 TIME LEFT: 861563.83
 STEP: 292 TIME =    13.05 SECS, INTEGRAL =   2446.53 TIME LEFT: 861550.78
 STEP: 293 TIME =     7.41 SECS, INTEGRAL =   2453.94 TIME LEFT: 861543.38
 STEP: 294 TIME =     8.25 SECS, INTEGRAL =   2462.19 TIME LEFT: 861535.12
 STEP: 295 TIME =     8.95 SECS, INTEGRAL =   2471.14 TIME LEFT: 861526.17
 STEP: 296 TIME =    11.73 SECS, INTEGRAL =   2482.88 TIME LEFT: 861514.44
 STEP: 297 TIME =    12.92 SECS, INTEGRAL =   2495.80 TIME LEFT: 861501.52
 STEP: 298 TIME =    12.20 SECS, INTEGRAL =   2508.00 TIME LEFT: 861489.31
 STEP: 299 TIME =    12.41 SECS, INTEGRAL =   2520.41 TIME LEFT: 861476.91
 STEP: 300 TIME =    11.52 SECS, INTEGRAL =   2531.92 TIME LEFT: 861465.39
 STEP: 301 TIME =     9.91 SECS, INTEGRAL =   2541.83 TIME LEFT: 861455.48
 STEP: 302 TIME =     8.12 SECS, INTEGRAL =   2549.95 TIME LEFT: 861447.36
 STEP: 303 TIME =     7.84 SECS, INTEGRAL =   2557.80 TIME LEFT: 861439.52
 STEP: 304 TIME =     9.67 SECS, INTEGRAL =   2567.47 TIME LEFT: 861429.84
 STEP: 305 TIME =     9.75 SECS, INTEGRAL =   2577.22 TIME LEFT: 861420.09
 STEP: 306 TIME =    13.95 SECS, INTEGRAL =   2591.17 TIME LEFT: 861406.14
 STEP: 307 TIME =    11.31 SECS, INTEGRAL =   2602.48 TIME LEFT: 861394.83
 STEP: 308 TIME =    10.69 SECS, INTEGRAL =   2613.17 TIME LEFT: 861384.14
 STEP: 309 TIME =    12.38 SECS, INTEGRAL =   2625.55 TIME LEFT: 861371.77
 STEP: 310 TIME =    12.52 SECS, INTEGRAL =   2638.06 TIME LEFT: 861359.25
 STEP: 311 TIME =    12.48 SECS, INTEGRAL =   2650.55 TIME LEFT: 861346.77
 STEP: 312 TIME =     6.80 SECS, INTEGRAL =   2657.34 TIME LEFT: 861339.97
 STEP: 313 TIME =     9.39 SECS, INTEGRAL =   2666.73 TIME LEFT: 861330.58
 STEP: 314 TIME =     9.78 SECS, INTEGRAL =   2676.52 TIME LEFT: 861320.80
 STEP: 315 TIME =    12.41 SECS, INTEGRAL =   2688.92 TIME LEFT: 861308.39
 STEP: 316 TIME =    10.42 SECS, INTEGRAL =   2699.34 TIME LEFT: 861297.97
 STEP: 317 TIME =    10.23 SECS, INTEGRAL =   2709.58 TIME LEFT: 861287.73
 STEP: 318 TIME =    11.67 SECS, INTEGRAL =   2721.25 TIME LEFT: 861276.06
 STEP: 319 TIME =    10.98 SECS, INTEGRAL =   2732.23 TIME LEFT: 861265.08
 STEP: 320 TIME =    11.27 SECS, INTEGRAL =   2743.50 TIME LEFT: 861253.81
 STEP: 321 TIME =     6.94 SECS, INTEGRAL =   2750.44 TIME LEFT: 861246.88
 STEP: 322 TIME =     5.64 SECS, INTEGRAL =   2756.08 TIME LEFT: 861241.23
 STEP: 323 TIME =     5.34 SECS, INTEGRAL =   2761.42 TIME LEFT: 861235.89
 STEP: 324 TIME =     5.58 SECS, INTEGRAL =   2767.00 TIME LEFT: 861230.31
 STEP: 325 TIME =     5.34 SECS, INTEGRAL =   2772.34 TIME LEFT: 861224.97
 STEP: 326 TIME =     5.41 SECS, INTEGRAL =   2777.75 TIME LEFT: 861219.56
 STEP: 327 TIME =     5.38 SECS, INTEGRAL =   2783.12 TIME LEFT: 861214.19
 STEP: 328 TIME =     4.97 SECS, INTEGRAL =   2788.09 TIME LEFT: 861209.22
 STEP: 329 TIME =     5.42 SECS, INTEGRAL =   2793.52 TIME LEFT: 861203.80
 STEP: 330 TIME =     5.02 SECS, INTEGRAL =   2798.53 TIME LEFT: 861198.78
 STEP: 331 TIME =     5.88 SECS, INTEGRAL =   2804.41 TIME LEFT: 861192.91
 STEP: 332 TIME =     5.27 SECS, INTEGRAL =   2809.67 TIME LEFT: 861187.64
 STEP: 333 TIME =     5.00 SECS, INTEGRAL =   2814.67 TIME LEFT: 861182.64
 STEP: 334 TIME =     5.70 SECS, INTEGRAL =   2820.38 TIME LEFT: 861176.94
 STEP: 335 TIME =     5.81 SECS, INTEGRAL =   2826.19 TIME LEFT: 861171.12
 STEP: 336 TIME =     6.23 SECS, INTEGRAL =   2832.42 TIME LEFT: 861164.89
 STEP: 337 TIME =     7.73 SECS, INTEGRAL =   2840.16 TIME LEFT: 861157.16
 STEP: 338 TIME =     7.06 SECS, INTEGRAL =   2847.22 TIME LEFT: 861150.09
 STEP: 339 TIME =     5.80 SECS, INTEGRAL =   2853.02 TIME LEFT: 861144.30
 STEP: 340 TIME =     6.03 SECS, INTEGRAL =   2859.05 TIME LEFT: 861138.27
 STEP: 341 TIME =     5.75 SECS, INTEGRAL =   2864.80 TIME LEFT: 861132.52
 STEP: 342 TIME =     5.58 SECS, INTEGRAL =   2870.38 TIME LEFT: 861126.94
 STEP: 343 TIME =     7.33 SECS, INTEGRAL =   2877.70 TIME LEFT: 861119.61
 STEP: 344 TIME =     7.12 SECS, INTEGRAL =   2884.83 TIME LEFT: 861112.48
 STEP: 345 TIME =     6.03 SECS, INTEGRAL =   2890.86 TIME LEFT: 861106.45
 STEP: 346 TIME =    11.83 SECS, INTEGRAL =   2902.69 TIME LEFT: 861094.62
 STEP: 347 TIME =    13.42 SECS, INTEGRAL =   2916.11 TIME LEFT: 861081.20
 STEP: 348 TIME =    10.55 SECS, INTEGRAL =   2926.66 TIME LEFT: 861070.66
 STEP: 349 TIME =    11.62 SECS, INTEGRAL =   2938.28 TIME LEFT: 861059.03
 STEP: 350 TIME =     8.80 SECS, INTEGRAL =   2947.08 TIME LEFT: 861050.23
 STEP: 351 TIME =    12.02 SECS, INTEGRAL =   2959.09 TIME LEFT: 861038.22
 STEP: 352 TIME =     9.44 SECS, INTEGRAL =   2968.53 TIME LEFT: 861028.78
 STEP: 353 TIME =     6.31 SECS, INTEGRAL =   2974.84 TIME LEFT: 861022.47
 STEP: 354 TIME =     6.22 SECS, INTEGRAL =   2981.06 TIME LEFT: 861016.25
 STEP: 355 TIME =     5.62 SECS, INTEGRAL =   2986.69 TIME LEFT: 861010.62
 STEP: 356 TIME =     4.83 SECS, INTEGRAL =   2991.52 TIME LEFT: 861005.80
 STEP: 357 TIME =     7.03 SECS, INTEGRAL =   2998.55 TIME LEFT: 860998.77
 STEP: 358 TIME =     6.50 SECS, INTEGRAL =   3005.05 TIME LEFT: 860992.27
 STEP: 359 TIME =     6.97 SECS, INTEGRAL =   3012.02 TIME LEFT: 860985.30
 STEP: 360 TIME =     4.34 SECS, INTEGRAL =   3016.36 TIME LEFT: 860980.95
 STEP: 361 TIME =     6.38 SECS, INTEGRAL =   3022.73 TIME LEFT: 860974.58
 STEP: 362 TIME =     5.20 SECS, INTEGRAL =   3027.94 TIME LEFT: 860969.38
 STEP: 363 TIME =     5.41 SECS, INTEGRAL =   3033.34 TIME LEFT: 860963.97
 STEP: 364 TIME =     4.98 SECS, INTEGRAL =   3038.33 TIME LEFT: 860958.98
 STEP: 365 TIME =     5.75 SECS, INTEGRAL =   3044.08 TIME LEFT: 860953.23
 STEP: 366 TIME =     4.56 SECS, INTEGRAL =   3048.64 TIME LEFT: 860948.67
 STEP: 367 TIME =     5.25 SECS, INTEGRAL =   3053.89 TIME LEFT: 860943.42
 STEP: 368 TIME =     4.86 SECS, INTEGRAL =   3058.75 TIME LEFT: 860938.56
 STEP: 369 TIME =     5.72 SECS, INTEGRAL =   3064.47 TIME LEFT: 860932.84
 STEP: 370 TIME =     5.70 SECS, INTEGRAL =   3070.17 TIME LEFT: 860927.14
 STEP: 371 TIME =     5.91 SECS, INTEGRAL =   3076.08 TIME LEFT: 860921.23
 STEP: 372 TIME =     5.88 SECS, INTEGRAL =   3081.95 TIME LEFT: 860915.36

(To convert to Hartree/Bohr^2, multiply by (10^(-21) x N x a0^2)/(4.184 x 627.51) = 0.0642)


           FORCE MATRIX IN MILLIDYNES/ANGSTROM


                 Eu  1       O  2       O  3       C  4       C  5       C  6
 ------------------------------------------------------------------------------
    Eu    1  12.828061
     O    2   1.612406  14.438384
     O    3   1.428900   0.918203  13.396254
     C    4   1.140620  10.753679   1.336516  19.389651
     C    5   0.428118   2.180471   2.233113   5.404883  16.398883
     C    6   1.162908   1.236618  10.093796   2.286788   6.692593  18.488763
     C    7   0.052863   1.393287   0.047027   4.716224   0.662829   0.099933
     C    8   0.111599   0.151104   1.127286   0.280182   0.420865   2.392169
     C    9   0.019512   0.111837   0.014826   0.799901   0.061095   0.024738
     C   10   0.022013   0.098740   0.022547   0.789476   0.055845   0.031547
     C   11   0.015873   0.042960   0.026043   0.126447   0.027564   0.032314
     C   12   0.011743   0.026227   0.005020   0.116068   0.024656   0.008193
     C   13   0.004741   0.015252   0.008518   0.023207   0.009200   0.012754
     H   14   0.022028   0.075908   0.107490   0.542708   4.759256   0.577159
     F   15   0.034277   0.033681   0.112289   0.067211   0.093177   0.753602
     F   16   0.036146   0.031968   0.144525   0.065147   0.170244   0.734952
     F   17   0.046752   0.044725   0.125641   0.060619   0.128085   0.790387
     H   18   0.015361   0.048922   0.009960   0.086529   0.015830   0.013558
     H   19   0.006554   0.013442   0.010485   0.065676   0.027141   0.011363
     H   20   0.004089   0.005122   0.003847   0.010575   0.007435   0.005891
     H   21   0.005509   0.006471   0.005616   0.012068   0.007414   0.007235
     H   22   0.004652   0.006533   0.005329   0.019877   0.008766   0.007918
     O   23   1.564020   0.046840   0.067996   0.047267   0.027976   0.062056
     O   24   1.453209   0.069488   0.084848   0.063713   0.023904   0.066941
     C   25   1.092146   0.046374   0.064265   0.044281   0.033903   0.059733
     C   26   0.447846   0.028603   0.024632   0.033287   0.027190   0.026474
     C   27   1.153661   0.061507   0.069011   0.056251   0.026290   0.051805
     C   28   0.046646   0.011040   0.011444   0.009674   0.003911   0.009344
     C   29   0.112801   0.015791   0.020366   0.016472   0.013201   0.019814
     C   30   0.017660   0.002456   0.002488   0.001464   0.000892   0.002152
     C   31   0.018446   0.002927   0.002638   0.002758   0.001567   0.001849
     C   32   0.013387   0.002910   0.002743   0.002289   0.001059   0.001857
     C   33   0.012322   0.002684   0.003238   0.002525   0.001854   0.002965
     C   34   0.003792   0.000934   0.000673   0.000986   0.000584   0.000677
     H   35   0.021364   0.003380   0.003675   0.003118   0.001694   0.003103
     F   36   0.035495   0.007609   0.007811   0.006919   0.004428   0.007526
     F   37   0.034534   0.007126   0.009351   0.006588   0.004232   0.009278
     F   38   0.042993   0.007403   0.009319   0.007437   0.005820   0.009366
     H   39   0.013941   0.002459   0.002964   0.002252   0.002008   0.002610
     H   40   0.007161   0.001095   0.000978   0.001140   0.000947   0.001017
     H   41   0.004101   0.000770   0.000995   0.000757   0.000509   0.000964
     H   42   0.005564   0.001207   0.001519   0.001181   0.000984   0.001274


                 Eu  1       O  2       O  3       C  4       C  5       C  6
 ------------------------------------------------------------------------------
     H   43   0.004749   0.001165   0.001521   0.000995   0.000783   0.001347
     O   44   1.594926   0.132771   0.299478   0.144663   0.137613   0.270059
     O   45   1.425112   0.239046   0.065294   0.188741   0.095589   0.073740
     C   46   1.135302   0.127116   0.203711   0.175965   0.159015   0.246464
     C   47   0.459879   0.122546   0.103126   0.156979   0.129757   0.140644
     C   48   1.162470   0.222573   0.080197   0.221164   0.133537   0.115726
     C   49   0.049372   0.021381   0.024944   0.022699   0.016650   0.024575
     C   50   0.117378   0.030993   0.039333   0.043081   0.036176   0.046838
     C   51   0.018351   0.008797   0.008517   0.010466   0.008316   0.012728
     C   52   0.018954   0.005822   0.004765   0.006289   0.004318   0.003992
     C   53   0.014436   0.006509   0.004634   0.007321   0.005794   0.004961
     C   54   0.012192   0.005706   0.007155   0.010315   0.010134   0.009371
     C   55   0.003645   0.001612   0.002134   0.002368   0.002300   0.002155
     H   56   0.021569   0.007019   0.006336   0.007272   0.005382   0.006908
     F   57   0.034634   0.014151   0.009566   0.015824   0.009710   0.011207
     F   58   0.039142   0.019740   0.019657   0.023287   0.016571   0.022960
     F   59   0.043028   0.012498   0.010520   0.012910   0.008387   0.010904
     H   60   0.012507   0.011752   0.015222   0.018988   0.018561   0.026128
     H   61   0.007425   0.002440   0.002151   0.002865   0.002165   0.002152
     H   62   0.003859   0.000717   0.001361   0.001390   0.001409   0.001509
     H   63   0.005226   0.002780   0.004588   0.003586   0.003723   0.005842
     H   64   0.004481   0.001025   0.001625   0.001282   0.001105   0.001760
     H   65   0.137703   0.016739   0.025833   0.024851   0.026434   0.048438
     H   66   0.131193   0.004644   0.017442   0.007780   0.008761   0.015388
     H   67   0.010657   0.003529   0.007296   0.005062   0.005411   0.007800
     C   68   0.118502   0.028481   0.076737   0.041134   0.042969   0.064414
     C   69   0.111807   0.021413   0.082837   0.033476   0.036647   0.064071
     C   70   0.026089   0.003957   0.015542   0.006232   0.006248   0.013145
     C   71   0.007041   0.002452   0.004828   0.003136   0.002104   0.003959
     C   72   0.003643   0.001324   0.001763   0.001934   0.001309   0.002049
     C   73   0.010050   0.002381   0.006975   0.003368   0.003182   0.006253
     C   74   0.048986   0.005423   0.015335   0.006980   0.005508   0.007491
     C   75   0.336392   0.009941   0.020145   0.010410   0.008877   0.011393
     S   76   0.876950   0.072217   0.140624   0.076644   0.068584   0.115409
     C   77   0.028521   0.002323   0.010896   0.003432   0.003510   0.009931
     C   78   0.008587   0.001276   0.006629   0.003666   0.004368   0.006663
     C   79   0.003168   0.001535   0.002335   0.001857   0.000931   0.002405
     C   80   0.003008   0.001870   0.001695   0.002970   0.002834   0.001692
     C   81   0.002994   0.000902   0.001246   0.001882   0.002098   0.001387
     C   82   0.008414   0.002557   0.005168   0.002355   0.000982   0.004537
     H   83   0.333178   0.013958   0.127127   0.019788   0.018479   0.040334
     H   84   0.015677   0.003560   0.004053   0.004137   0.003384   0.004158
     H   85   0.006198   0.001228   0.003357   0.001743   0.001607   0.003280
     H   86   0.005189   0.001131   0.002493   0.001419   0.001271   0.002382
     H   87   0.007483   0.003085   0.006530   0.005004   0.005892   0.008177
     H   88   0.003104   0.000970   0.002024   0.001059   0.001168   0.002245
     H   89   0.002796   0.000473   0.001278   0.000946   0.001051   0.001600


                 Eu  1       O  2       O  3       C  4       C  5       C  6
 ------------------------------------------------------------------------------
     H   90   0.006677   0.001680   0.001791   0.001974   0.001573   0.001901
     O   91   1.837646   0.088676   0.129484   0.098040   0.067973   0.098966
     H   92   0.005719   0.001543   0.003270   0.002247   0.002138   0.003566
     H   93   0.003203   0.000484   0.001752   0.000985   0.001066   0.001821
     H   94   0.042059   0.017124   0.024979   0.026324   0.028737   0.048557
     C   95   0.040243   0.007254   0.011196   0.010923   0.010477   0.013139
     C   96   0.050589   0.008062   0.011564   0.007940   0.006536   0.011122
     C   97   0.053168   0.012460   0.015352   0.010109   0.005233   0.013610
     C   98   0.448107   0.019102   0.016962   0.013333   0.007587   0.014522
     C   99   0.155706   0.047191   0.021967   0.044689   0.025684   0.024680
     C  100   0.039932   0.009085   0.010362   0.012098   0.010569   0.012062
     S  101   0.827529   0.116992   0.091500   0.143643   0.091343   0.103101
     C  102   0.158310   0.057266   0.038728   0.056309   0.032324   0.041804
     C  103   0.356637   0.039070   0.013438   0.039261   0.010797   0.008427
     C  104   0.055776   0.051654   0.010369   0.047308   0.017427   0.013096
     C  105   0.051870   0.029101   0.006200   0.027633   0.011679   0.009241
     C  106   0.044268   0.017692   0.008139   0.016104   0.010158   0.011294
     C  107   0.046393   0.014450   0.008871   0.013422   0.009000   0.012113
     H  108   0.004432   0.001191   0.001333   0.001391   0.001062   0.001484
     H  109   0.006691   0.001718   0.001597   0.001588   0.000530   0.001560
     H  110   0.015363   0.002091   0.001947   0.002336   0.001592   0.002053
     H  111   0.364391   0.016190   0.011036   0.010845   0.004960   0.005862
     H  112   0.359578   0.117830   0.018240   0.030139   0.014261   0.016347
     H  113   0.018514   0.007115   0.004827   0.008268   0.005914   0.006213
     H  114   0.005539   0.003142   0.001363   0.003547   0.002009   0.001802
     H  115   0.003159   0.001576   0.001329   0.002020   0.001347   0.001473
     O  116   1.841794   0.195679   0.123787   0.163403   0.094692   0.122243
     C  117   0.010705   0.003378   0.002471   0.003173   0.001373   0.002100
     C  118   0.010161   0.005719   0.002360   0.006355   0.003588   0.002679
     H  119   0.002810   0.000574   0.000692   0.000533   0.000467   0.000587
     H  120   0.001686   0.000458   0.000464   0.000588   0.000324   0.000514
     H  121   0.004003   0.000718   0.000864   0.000710   0.000501   0.000755
     H  122   0.001416   0.000944   0.000800   0.001452   0.001069   0.000861
     H  123   0.003269   0.001510   0.000660   0.001487   0.000921   0.000685
     H  124   0.002980   0.001880   0.001372   0.002410   0.001655   0.001505


                  C  7       C  8       C  9       C 10       C 11       C 12
 ------------------------------------------------------------------------------
     C    7  17.166658
     C    8   0.034855  22.369463
     C    9   6.197933   0.006552  16.277341
     C   10   6.222585   0.006793   2.490582  16.299451
     C   11   2.495951   0.005768   1.957675   6.349930  16.154745
     C   12   2.490184   0.005181   6.323443   1.964207   2.587137  16.138579
     C   13   1.907671   0.001916   2.565365   2.566983   6.294936   6.327418
     H   14   0.044898   0.087993   0.004987   0.035576   0.005591   0.003935
     F   15   0.010009   9.722513   0.002677   0.003032   0.001666   0.001786
     F   16   0.009564   9.691201   0.002389   0.002494   0.002425   0.001800
     F   17   0.012898   9.598787   0.002595   0.001827   0.001896   0.001851
     H   18   0.532149   0.002570   4.624925   0.087950   0.012950   0.514336
     H   19   0.533623   0.006604   0.088175   4.665608   0.519302   0.011030
     H   20   0.094766   0.002212   0.006191   0.528057   4.680402   0.092602
     H   21   0.094699   0.001590   0.525473   0.006560   0.093236   4.682351
     H   22   0.015065   0.001918   0.095717   0.093964   0.524058   0.523486
     O   23   0.011528   0.015688   0.002716   0.003044   0.003214   0.002573
     O   24   0.010260   0.020230   0.002750   0.003434   0.002699   0.003469
     C   25   0.009640   0.017362   0.002805   0.002863   0.002341   0.002870
     C   26   0.004608   0.014655   0.001720   0.000955   0.001386   0.002390
     C   27   0.007801   0.020404   0.001830   0.002299   0.001353   0.003348
     C   28   0.001627   0.004009   0.000799   0.000675   0.000676   0.001243
     C   29   0.003303   0.005431   0.001515   0.000815   0.001314   0.001513
     C   30   0.000683   0.001928   0.000767   0.000608   0.000810   0.000693
     C   31   0.000771   0.001585   0.000715   0.000655   0.000925   0.000585
     C   32   0.000639   0.001544   0.000643   0.000345   0.000762   0.000915
     C   33   0.001005   0.002106   0.000659   0.001083   0.001354   0.000842
     C   34   0.000440   0.001248   0.000593   0.000420   0.000899   0.000613
     H   35   0.000507   0.001161   0.000293   0.000315   0.000276   0.000382
     F   36   0.001417   0.002407   0.000231   0.000533   0.000656   0.000740
     F   37   0.001289   0.001944   0.000566   0.000350   0.000475   0.000674
     F   38   0.001463   0.002970   0.000580   0.000462   0.000614   0.000726
     H   39   0.000482   0.002150   0.000213   0.000158   0.000180   0.000153
     H   40   0.000267   0.000758   0.000145   0.000177   0.000264   0.000142
     H   41   0.000184   0.000482   0.000089   0.000123   0.000135   0.000085
     H   42   0.000255   0.001138   0.000183   0.000149   0.000087   0.000200
     H   43   0.000238   0.000699   0.000165   0.000146   0.000204   0.000191
     O   44   0.023891   0.037672   0.009593   0.006697   0.006683   0.004752
     O   45   0.020475   0.037201   0.005400   0.004533   0.004315   0.006108
     C   46   0.024418   0.053042   0.010870   0.006899   0.007287   0.008614
     C   47   0.015159   0.041711   0.007623   0.004406   0.005435   0.008902
     C   48   0.020939   0.045864   0.007506   0.003530   0.003642   0.008928
     C   49   0.004596   0.014501   0.001854   0.001400   0.001432   0.002665
     C   50   0.010720   0.013251   0.006454   0.003553   0.004848   0.008570
     C   51   0.001539   0.012297   0.001668   0.000678   0.000783   0.001217
     C   52   0.002272   0.004483   0.000934   0.001259   0.001753   0.000545


                  C  7       C  8       C  9       C 10       C 11       C 12
 ------------------------------------------------------------------------------
     C   53   0.002183   0.005426   0.001039   0.001383   0.001242   0.000859
     C   54   0.002325   0.012900   0.001961   0.000540   0.000434   0.001693
     C   55   0.001196   0.002688   0.001018   0.000849   0.000777   0.000775
     H   56   0.001584   0.002891   0.000667   0.000371   0.000443   0.000871
     F   57   0.002997   0.005228   0.001339   0.000773   0.001104   0.002241
     F   58   0.005707   0.004621   0.002792   0.001778   0.002070   0.004746
     F   59   0.003219   0.005581   0.001728   0.001333   0.001276   0.002584
     H   60   0.002202   0.035107   0.000654   0.000400   0.000600   0.000450
     H   61   0.000385   0.002695   0.000179   0.000317   0.000328   0.000231
     H   62   0.000436   0.002145   0.000267   0.000202   0.000220   0.000264
     H   63   0.000645   0.009651   0.000301   0.000180   0.000186   0.000264
     H   64   0.000459   0.001950   0.000158   0.000209   0.000283   0.000195
     H   65   0.002025   0.028205   0.000558   0.000621   0.000737   0.000465
     H   66   0.000969   0.007131   0.000271   0.000442   0.000374   0.000358
     H   67   0.000670   0.010112   0.000346   0.000330   0.000284   0.000186
     C   68   0.004210   0.051741   0.001450   0.001173   0.001609   0.000846
     C   69   0.004454   0.034096   0.001272   0.001337   0.001146   0.001078
     C   70   0.000538   0.003238   0.000597   0.000751   0.001169   0.000445
     C   71   0.001089   0.002504   0.000957   0.000589   0.000506   0.001059
     C   72   0.001129   0.001681   0.001128   0.000628   0.000808   0.001595
     C   73   0.001122   0.004943   0.001142   0.000904   0.000584   0.000743
     C   74   0.001398   0.012549   0.000822   0.000969   0.000928   0.001053
     C   75   0.001323   0.006254   0.000557   0.001181   0.001010   0.000860
     S   76   0.009335   0.062763   0.002759   0.002740   0.002639   0.002262
     C   77   0.000684   0.004211   0.000640   0.000671   0.000752   0.000787
     C   78   0.000585   0.005742   0.000694   0.000378   0.000413   0.000733
     C   79   0.000831   0.003861   0.000548   0.000324   0.000425   0.000390
     C   80   0.000572   0.003141   0.000448   0.000574   0.000457   0.000510
     C   81   0.000387   0.002134   0.000349   0.000648   0.000555   0.000551
     C   82   0.000466   0.003347   0.000201   0.000343   0.000622   0.000453
     H   83   0.002327   0.008666   0.000719   0.000703   0.000759   0.000311
     H   84   0.000632   0.002721   0.000236   0.000213   0.000284   0.000156
     H   85   0.000480   0.001683   0.000250   0.000166   0.000225   0.000190
     H   86   0.000297   0.002054   0.000202   0.000152   0.000147   0.000189
     H   87   0.000664   0.017221   0.000159   0.000273   0.000168   0.000236
     H   88   0.000170   0.002651   0.000130   0.000076   0.000103   0.000130
     H   89   0.000144   0.001993   0.000072   0.000105   0.000154   0.000086
     H   90   0.000217   0.002142   0.000101   0.000146   0.000096   0.000086
     O   91   0.010140   0.050200   0.002754   0.002444   0.001607   0.002349
     H   92   0.000379   0.001762   0.000146   0.000104   0.000256   0.000205
     H   93   0.000338   0.001626   0.000179   0.000150   0.000110   0.000145
     H   94   0.002232   0.044618   0.000691   0.000789   0.000726   0.000355
     C   95   0.000819   0.002006   0.000543   0.001127   0.001178   0.000706
     C   96   0.001421   0.002576   0.000795   0.001183   0.001048   0.000672
     C   97   0.002464   0.002678   0.000736   0.000644   0.000847   0.000509
     C   98   0.002071   0.003238   0.001060   0.001142   0.001059   0.000847
     C   99   0.005411   0.011001   0.001325   0.002022   0.002454   0.001907


                  C  7       C  8       C  9       C 10       C 11       C 12
 ------------------------------------------------------------------------------
     C  100   0.001141   0.003086   0.001124   0.001406   0.001297   0.000871
     S  101   0.024343   0.031863   0.007414   0.007903   0.009410   0.007815
     C  102   0.012051   0.010225   0.003093   0.003722   0.004856   0.003785
     C  103   0.007733   0.004820   0.003815   0.001792   0.001449   0.004585
     C  104   0.008752   0.005840   0.006641   0.002805   0.003492   0.006642
     C  105   0.004695   0.003354   0.002808   0.001529   0.001958   0.004254
     C  106   0.002460   0.002809   0.003068   0.001331   0.001970   0.003970
     C  107   0.001488   0.002603   0.001826   0.001053   0.001176   0.002265
     H  108   0.000287   0.000421   0.000113   0.000096   0.000131   0.000102
     H  109   0.000262   0.000734   0.000084   0.000107   0.000174   0.000151
     H  110   0.000276   0.001085   0.000114   0.000234   0.000166   0.000194
     H  111   0.000786   0.002916   0.000326   0.000313   0.000152   0.000338
     H  112   0.002742   0.002386   0.001765   0.000878   0.000583   0.001645
     H  113   0.001803   0.001425   0.002640   0.000881   0.001296   0.002054
[...]
 RED. MASS   0.2597        C 10 --  H 19           +7.8% ( 28.3%)   100.0%
 EFF. MASS   1.5319

 VIBRATION  363  363A       ATOM PAIR        ENERGY CONTRIBUTION    RADIAL
 FREQ.      3078.86        C 55 --  H 64          +29.8% ( 55.2%)   100.0%
 T-DIPOLE    0.4504        C 53 --  H 62          +29.2% ( 54.6%)   100.0%
 TRAVEL      0.1195        C 54 --  H 63          +27.5% ( 53.0%)   100.0%
 RED. MASS   0.2510        C 52 --  H 61           +5.4% ( 23.6%)   100.0%
 EFF. MASS   1.5328

 VIBRATION  364  364A       ATOM PAIR        ENERGY CONTRIBUTION    RADIAL
 FREQ.      3097.65        C  5 --  H 14          +97.4% ( 99.9%)   100.0%
 T-DIPOLE    0.7187        C  5 --  C  6           +1.2% ( 11.2%)    28.0%
 TRAVEL      0.1221        C  4 --  C  5           +1.2% ( 11.2%)    23.2%
 RED. MASS   0.9273
 EFF. MASS   1.4612

 VIBRATION  365  365A       ATOM PAIR        ENERGY CONTRIBUTION    RADIAL
 FREQ.      3102.88        C 47 --  H 56          +96.6% ( 99.5%)   100.0%
 T-DIPOLE    0.6848        C 47 --  C 48           +1.2% ( 11.2%)    27.7%
 TRAVEL      0.1219        C 46 --  C 47           +1.2% ( 11.2%)    24.5%
 RED. MASS   0.9117        C 26 --  H 35           +0.9% (  9.3%)   100.0%
 EFF. MASS   1.4627

 VIBRATION  366  366A       ATOM PAIR        ENERGY CONTRIBUTION    RADIAL
 FREQ.      3104.48        C 26 --  H 35          +96.6% ( 99.5%)   100.0%
 T-DIPOLE    0.7013        C 26 --  C 27           +1.2% ( 11.3%)    28.1%
 TRAVEL      0.1218        C 25 --  C 26           +1.2% ( 11.2%)    24.9%
 RED. MASS   0.9128        C 47 --  H 56           +0.8% (  9.3%)   100.0%
 EFF. MASS   1.4635

 SYMMETRY NUMBER FOR POINT-GROUP C1  =  1


          SYSTEM IS A GROUND STATE


                                                                                                                                                                                                                                                 
 Eu-btfa-3-dbso-1-ptso-1                                                                                                                                                                                                                         


          MOLECULE IS NOT LINEAR

          THERE ARE  366 GENUINE VIBRATIONS IN THIS SYSTEM
          THIS THERMODYNAMICS CALCULATION IS LIMITED TO
          MOLECULES WHICH HAVE NO INTERNAL ROTATIONS




                    CALCULATED THERMODYNAMIC PROPERTIES
                                          *
   TEMP. (K)   PARTITION FUNCTION   H.O.F.    ENTHALPY  HEAT CAPACITY ENTROPY
                                   KCAL/MOL   CAL/MOLE    CAL/K/MOL  CAL/K/MOL


 298.00  VIB.     0.6707D+35                 43462.4943   265.3728   305.2033
         ROT.     0.2115D+09                   888.2813     2.9808    41.0747
         INT.     0.1418D+44                 44350.7756   268.3536   346.2781
         TRA.     0.4314D+29                  1480.4688     4.9680    47.2637
         TOT.                     -748.168   45831.2444   273.3216   393.5418

 200.00  VIB.     0.9249D+24                 21149.4909   189.7912   215.4093
         ROT.     0.1163D+09                   596.1620     2.9808    39.8861
         INT.     0.1075D+33                 21745.6528   192.7720   255.2954
         TRA.     0.2372D+29                   993.6033     4.9680    45.2826
         TOT.                     -771.260   22739.2561   197.7400   300.5779

 210.00  VIB.     0.1306D+26                 23086.0293   197.5186   224.8562
         ROT.     0.1251D+09                   625.9700     2.9808    40.0315
         INT.     0.1633D+34                 23711.9993   200.4994   264.8877
         TRA.     0.2552D+29                  1043.2834     4.9680    45.5250
         TOT.                     -769.244   24755.2827   205.4674   310.4126

 220.00  VIB.     0.1797D+27                 25099.9013   205.2576   234.2233
         ROT.     0.1341D+09                   655.7781     2.9808    40.1702
         INT.     0.2410D+35                 25755.6795   208.2384   274.3935
         TRA.     0.2736D+29                  1092.9636     4.9680    45.7561
         TOT.                     -767.150   26848.6430   213.2065   320.1495

 230.00  VIB.     0.2414D+28                 27191.2110   213.0054   243.5183
         ROT.     0.1434D+09                   685.5862     2.9808    40.3027
         INT.     0.3462D+36                 27876.7973   215.9862   283.8209
         TRA.     0.2925D+29                  1142.6437     4.9680    45.9769
         TOT.                     -764.979   29019.4410   220.9542   329.7978

 240.00  VIB.     0.3172D+29                 29360.0209   220.7567   252.7475
         ROT.     0.1528D+09                   715.3943     2.9808    40.4295
         INT.     0.4848D+37                 30075.4153   223.7375   293.1770
         TRA.     0.3118D+29                  1192.3239     4.9680    46.1883
         TOT.                     -762.731   31267.7392   228.7055   339.3653

 250.00  VIB.     0.4082D+30                 31606.3330   228.5046   261.9163
         ROT.     0.1625D+09                   745.2024     2.9808    40.5512
         INT.     0.6633D+38                 32351.5354   231.4854   302.4675
         TRA.     0.3315D+29                  1242.0041     4.9680    46.3911
         TOT.                     -760.405   33593.5395   236.4534   348.8586

 260.00  VIB.     0.5151D+31                 33930.0740   236.2410   271.0292
         ROT.     0.1723D+09                   775.0105     2.9808    40.6681
         INT.     0.8878D+39                 34705.0846   239.2218   311.6973
         TRA.     0.3516D+29                  1291.6842     4.9680    46.5860
         TOT.                     -758.002   35996.7688   244.1898   358.2833

 270.00  VIB.     0.6382D+32                 36331.0853   243.9571   280.0898
         ROT.     0.1824D+09                   804.8186     2.9808    40.7806
         INT.     0.1164D+41                 37135.9040   246.9379   320.8704
         TRA.     0.3720D+29                  1341.3644     4.9680    46.7735
         TOT.                     -755.522   38477.2684   251.9059   367.6439

 280.00  VIB.     0.7769D+33                 38809.1161   251.6433   289.1009
         ROT.     0.1926D+09                   834.6267     2.9808    40.8890
         INT.     0.1496D+42                 39643.7429   254.6241   329.9899
         TRA.     0.3929D+29                  1391.0445     4.9680    46.9542
         TOT.                     -752.964   41034.7874   259.5921   376.9441

 290.00  VIB.     0.9305D+34                 41363.8202   259.2901   298.0649
         ROT.     0.2030D+09                   864.4348     2.9808    40.9936
         INT.     0.1889D+43                 42228.2550   262.2709   339.0586
         TRA.     0.4141D+29                  1440.7247     4.9680    47.1285
         TOT.                     -750.330   43668.9798   267.2390   386.1871

 300.00  VIB.     0.1097D+36                 43994.7554   266.8880   306.9835
         ROT.     0.2136D+09                   894.2429     2.9808    41.0947
         INT.     0.2344D+44                 44888.9983   269.8688   348.0782
         TRA.     0.4358D+29                  1490.4049     4.9680    47.2969
         TOT.                     -747.619   46379.4032   274.8368   395.3751

 310.00  VIB.     0.1275D+37                 46701.3854   274.4276   315.8578
         ROT.     0.2244D+09                   924.0510     2.9808    41.1924
         INT.     0.2860D+45                 47625.4364   277.4084   357.0502
         TRA.     0.4577D+29                  1540.0850     4.9680    47.4598
         TOT.                     -744.833   49165.5214   282.3764   404.5100

 320.00  VIB.     0.1461D+38                 49483.0833   281.9001   324.6887
         ROT.     0.2353D+09                   953.8591     2.9808    41.2871
         INT.     0.3437D+46                 50436.9424   284.8809   365.9758
         TRA.     0.4800D+29                  1589.7652     4.9680    47.6176
         TOT.                     -741.972   52026.7076   289.8490   413.5933

 330.00  VIB.     0.1651D+39                 52339.1368   289.2974   333.4767
         ROT.     0.2464D+09                   983.6672     2.9808    41.3788
         INT.     0.4068D+47                 53322.8040   292.2782   374.8554
         TRA.     0.5027D+29                  1639.4454     4.9680    47.7704
         TOT.                     -739.037   54962.2494   297.2462   422.6259

 340.00  VIB.     0.1842D+40                 55268.7543   296.6117   342.2219
         ROT.     0.2577D+09                  1013.4753     2.9808    41.4678
         INT.     0.4747D+48                 56282.2297   299.5925   383.6897
         TRA.     0.5257D+29                  1689.1255     4.9680    47.9187
         TOT.                     -736.028   57971.3552   304.5605   431.6084

 350.00  VIB.     0.2030D+41                 58271.0718   303.8363   350.9244
         ROT.     0.2692D+09                  1043.2834     2.9808    41.5542
         INT.     0.5464D+49                 59314.3552   306.8171   392.4785
         TRA.     0.5491D+29                  1738.8057     4.9680    48.0628
         TOT.                     -732.946   61053.1609   311.7851   440.5413

 360.00  VIB.     0.2211D+42                 61345.1601   310.9649   359.5839
         ROT.     0.2808D+09                  1073.0915     2.9808    41.6381
         INT.     0.6207D+50                 62418.2516   313.9457   401.2220
         TRA.     0.5728D+29                  1788.4859     4.9680    48.2027
         TOT.                     -729.792   64206.7375   318.9137   449.4247

 370.00  VIB.     0.2380D+43                 64490.0324   317.9922   368.2001
         ROT.     0.2926D+09                  1102.8996     2.9808    41.7198
         INT.     0.6962D+51                 65592.9320   320.9731   409.9199
         TRA.     0.5968D+29                  1838.1660     4.9680    48.3388
         TOT.                     -726.568   67431.0980   325.9411   458.2587

 380.00  VIB.     0.2533D+44                 67704.6518   324.9136   376.7725
         ROT.     0.3045D+09                  1132.7077     2.9808    41.7993
         INT.     0.7712D+52                 68837.3595   327.8944   418.5718
         TRA.     0.6212D+29                  1887.8462     4.9680    48.4713
         TOT.                     -723.274   70725.2056   332.8625   467.0431

 390.00  VIB.     0.2666D+45                 70987.9389   331.7252   385.3006
         ROT.     0.3166D+09                  1162.5158     2.9808    41.8767
         INT.     0.8442D+53                 72150.4547   334.7060   427.1773
         TRA.     0.6459D+29                  1937.5263     4.9680    48.6004
         TOT.                     -719.911   74087.9810   339.6740   475.7777

 400.00  VIB.     0.2777D+46                 74338.7788   338.4237   393.7838
         ROT.     0.3289D+09                  1192.3239     2.9808    41.9522
         INT.     0.9133D+54                 75531.1027   341.4045   435.7360
         TRA.     0.6709D+29                  1987.2065     4.9680    48.7261
         TOT.                     -716.481   77518.3092   346.3725   484.4622

   *: NOTE: HEATS OF FORMATION ARE RELATIVE TO THE
            ELEMENTS IN THEIR STANDARD STATE AT 298K
              (=  Standard Enthalpy of Formation).

            Hvib:  Zero-point energy is not included.
                   frequencies of less than zero cm-1 are not included.
            Hrot = (3/2)RT
            Htra = (3/2)RT + pV = (5/2)RT

            Heat capacity is Cp, not Cv

           For more information, see: HTTP://OpenMOPAC.net/Manual/thermochemistry.html


           FORCE CONSTANT IN CARTESIAN COORDINATES (Millidynes/A)

    ATOM   CHEMICAL       X               Y               Z
   NUMBER   SYMBOL  FORCE CONSTANT  FORCE CONSTANT  FORCE CONSTANT

      1      Eu        8.066865        6.540204        7.442118
      2       O       11.071439        5.169454        0.484672
      3       O       10.932609        4.078618        0.662679
      4       C       14.295341       12.429289        3.042214
      5       C       11.948513       10.995650        2.061971
      6       C       15.879646        8.999979        2.859495
      7       C       11.574779        9.164315        5.866093
      8       C       14.054780       10.696424       13.710543
      9       C       10.801989        8.576106        5.781107
     10       C       10.651502        8.624661        5.930704
     11       C       10.620327        8.458922        5.862615
     12       C       10.507441        8.582926        5.852779
     13       C       10.673527        8.481488        5.785278
     14       H        4.120857        2.085156        0.354061
     15       F        2.239043        2.682764        9.845092
     16       F        5.845836        2.378079        6.759593
     17       F       10.317619        2.733717        1.808200
     18       H        3.386769        1.243735        1.725250
     19       H        0.851730        3.627592        1.939665
     20       H        3.419254        1.204761        1.770298
     21       H        0.831769        3.671371        1.886908
     22       H        4.159958        1.676246        0.550480
     23       O        6.529439        6.900814        3.259724
     24       O        6.052642        6.081423        3.889448
     25       C        9.244161       12.609270        8.020219
     26       C        6.984098       10.526974        7.590055
     27       C        9.252083        9.643441        9.198380
     28       C       11.403440        6.119702        9.151101
     29       C       13.797532       11.067196       13.785197
     30       C       10.835851        5.525884        8.764365
     31       C       10.807191        5.615722        8.753778
     32       C       10.838066        5.508803        8.575566
     33       C       10.666077        5.547521        8.725930
     34       C       10.727121        5.539852        8.731236
     35       H        2.250216        2.841758        1.458061
     36       F       10.410408        1.511569        2.757943
     37       F        1.581905        5.687487        7.645925
     38       F        6.249729        1.556115        7.134468
     39       H        4.710036        0.900788        0.736323
     40       H        1.371987        2.080749        2.962855
     41       H        4.787673        0.911489        0.689288
     42       H        1.314841        2.077005        2.993802
     43       H        2.416746        0.924893        3.036544
     44       O        1.359091        2.016575       13.098477
     45       O        1.416049        1.736781       12.799852
     46       C        3.943608       11.058166       14.682470
     47       C        3.013354       10.948116       10.973914
     48       C        3.756564        9.575861       14.568116
     49       C        3.759373       11.598724       11.218177
     50       C       13.274293       11.588621       13.702503
     51       C        3.668280       11.017755       10.499306
     52       C        3.745441       11.076419       10.364963
     53       C        3.691059       10.829729       10.416076
     54       C        3.677151       10.967267       10.299920
     55       C        3.666178       10.912880       10.354521
     56       H        0.799960        0.922080        4.856943
     57       F        2.731001        1.489075       10.735014
     58       F       12.265937        1.102974        1.270356
     59       F        2.266856        7.840275        4.871035
     60       H        0.963146        0.886004        4.541564
     61       H        0.925577        4.230932        1.261866
     62       H        0.981542        0.843337        4.565300
     63       H        0.877923        4.280195        1.232966
     64       H        0.440142        3.543237        2.400707
     65       H        4.558065        0.967439        0.734898
     66       H        0.690664        3.369938        2.231360
     67       H        1.481275        4.126528        0.745530
     68       C        6.832353        7.102085        7.386811
     69       C        7.295240        8.075545        5.456247
     70       C        7.615166        6.231276       11.059581
     71       C        7.536635        6.306139       11.128081
     72       C        7.555288        6.401339       11.065852
     73       C        7.425847        6.507587       11.171558
     74       C        7.641958        6.856769       11.501135
     75       C        7.210504        6.370125       11.043587
     76       S        5.230020        7.493331        4.334344
     77       C        8.078664       11.665884        6.193409
     78       C        8.030477       11.328102        5.718241
     79       C        7.876413       11.360790        5.770697
     80       C        7.812207       11.298662        5.775454
     81       C        7.850048       11.273864        5.869744
     82       C        7.761307       11.439422        5.897217
     83       H        2.028065        1.226622        3.042272
     84       H        2.965726        2.439285        1.003303
     85       H        2.099778        1.071950        3.215608
     86       H        2.822002        2.615877        0.984152
     87       H        3.346904        1.025022        2.041449
     88       H        1.012026        4.698296        0.668507
     89       H        3.228366        0.973935        2.181647
     90       H        1.001130        4.644034        0.735651
     91       O        3.159270        6.132135        1.438272
     92       H        0.722881        1.039762        4.624398
     93       H        1.707740        3.333307        1.353846
     94       H        4.207705        0.859734        1.260859
     95       C       11.369707        7.124887        6.603085
     96       C       11.800062        7.482112        6.980109
     97       C       11.348039        7.023501        6.622251
     98       C       11.544945        6.802185        6.579518
     99       C        8.897298        7.052731        6.651876
    100       C       11.556111        7.195207        6.554433
    101       S        4.561751        6.505319        7.104500
    102       C        4.433318        7.606470       10.674465
    103       C        4.720225        9.027895       11.127823
    104       C        4.633604        9.037438       11.309610
    105       C        5.091670        9.613493       11.616022
    106       C        4.702076        9.255459       11.171637
    107       C        4.801405        9.354956       11.171439
    108       H        3.250665        1.463893        1.614050
    109       H        0.998143        2.935154        2.486908
    110       H        3.251484        1.420516        1.722654
    111       H        1.134685        2.642485        2.408116
    112       H        1.326397        2.857985        2.167213
    113       H        0.506471        0.728123        5.183465
    114       H        1.293479        2.917096        2.210200
    115       H        0.513003        0.729794        5.083113
    116       O        1.420490        4.310384        5.445229
    117       C        8.611543        7.731977        7.786824
    118       C        7.881373        8.215440        8.052082
    119       H        2.749303        2.962829        0.709217
    120       H        0.846532        1.016516        4.546338
    121       H        0.839729        3.159258        2.240075
    122       H        2.469089        1.738669        2.237838
    123       H        2.766330        2.553349        0.928935
    124       H        1.760342        1.007366        3.612480



 TOTAL CPU TIME:          3085.81 SECONDS

 == MOPAC DONE ==
