 *******************************************************************************
 ** Site#: 6211         For non-commercial use only     Version 16.093W 64BITS**
 *******************************************************************************
 ** Cite this program as: MOPAC2016, Version: 16.093W, James J. P. Stewart,   **
 ** Stewart Computational Chemistry, web: HTTP://OpenMOPAC.net. Days left: 342**
 *******************************************************************************
 **                                                                           **
 **                                MOPAC2016                                  **
 **                                                                           **
 *******************************************************************************

                              PM7 CALCULATION RESULTS


 *******************************************************************************
 *  CALCULATION DONE:                                Tue Apr 26 11:13:52 2016  *
 *  T=         - A TIME OF 172800.0 SECONDS REQUESTED
 *  DUMP=N     - RESTART FILE WRITTEN EVERY  7200.000 SECONDS
 *******************************************************************************

 h-h-mol

   ATOM   CHEMICAL          X               Y               Z
  NUMBER   SYMBOL      (ANGSTROMS)     (ANGSTROMS)     (ANGSTROMS)
 
     1       H          0.00000000  *   0.00000000  *   0.00000000  *
     2       H          0.74000000  *   0.00000000  *   0.00000000  *
 


          CARTESIAN COORDINATES 

    NO.       ATOM         X         Y         Z

     1         H        0.0000    0.0000    0.0000
     2         H        0.7400    0.0000    0.0000

 General Reference for PM7:
 "Optimization of Parameters for Semiempirical Methods VI: More Modifications to the 
 NDDO Approximations and Re-optimization of Parameters", J. J. P. Stewart, J. Mol. Mod., 1:32, 19 (2013)
 http://www.springerlink.com/openurl.asp?genre=article&id=doi:10.1007/s00894-012-1667-x

           Empirical Formula: H2  =     2 atoms



      MOLECULAR POINT GROUP   :   D*h 


      RHF CALCULATION, NO. OF DOUBLY OCCUPIED LEVELS = 1


          Geometry optimization using EF

          DIAGONAL MATRIX USED AS START HESSIAN

 CYCLE:     1 TIME:   0.004 TIME LEFT:  2.00D  GRAD.:    38.658 HEAT: -31.74830
 CYCLE:     2 TIME:   0.004 TIME LEFT:  2.00D  GRAD.:    14.389 HEAT: -31.97057
 CYCLE:     3 TIME:   0.000 TIME LEFT:  2.00D  GRAD.:     0.746 HEAT: -32.01048

     GRADIENT =  0.74640  IS LESS THAN CUTOFF =  1.00000



 -------------------------------------------------------------------------------

 h-h-mol



     GEOMETRY OPTIMISED USING EIGENVECTOR FOLLOWING (EF).     
     SCF FIELD WAS ACHIEVED                                   


                              PM7 CALCULATION
                                                       MOPAC2016 (Version: 16.093W)
                                                       Tue Apr 26 11:13:52 2016
                                                       No. of days remaining = 342




          FINAL HEAT OF FORMATION =        -32.01048 KCAL/MOL =    -133.93184 KJ/MOL


          TOTAL ENERGY            =        -28.04697 EV
          ELECTRONIC ENERGY       =        -42.79009 EV  POINT GROUP:     D*h 
          CORE-CORE REPULSION     =         14.74313 EV
          COSMO AREA              =         27.33 SQUARE ANGSTROMS
          COSMO VOLUME            =         13.10 CUBIC ANGSTROMS

          GRADIENT NORM           =          0.74640
          IONIZATION POTENTIAL    =         15.022893 EV
          HOMO LUMO ENERGIES (EV) =        -15.023  7.032
          NO. OF FILLED LEVELS    =          1
          MOLECULAR WEIGHT        =          2.0158

          MOLECULAR DIMENSIONS (Angstroms)

            Atom       Atom       Distance
            H     2    H     1     0.75992
            H     2    H     1     0.00000
            H     1    H     2     0.00000


          SCF CALCULATIONS        =          5
 
          WALL-CLOCK TIME         =          0.023 SECONDS
          COMPUTATION TIME        =          0.016 SECONDS




   ATOM   CHEMICAL          X               Y               Z
  NUMBER   SYMBOL      (ANGSTROMS)     (ANGSTROMS)     (ANGSTROMS)
 
     1       H         -0.00996029  *  -0.00000000  *  -0.00000000  *
     2       H          0.74996029  *  -0.00000000  *  -0.00000000  *

                             CARTESIAN COORDINATES

   1    H       -0.009960286    -0.000000000    -0.000000000
   2    H        0.749960287    -0.000000000    -0.000000000


           Empirical Formula: H2  =     2 atoms



      MOLECULAR POINT GROUP   :   D*h 


                  EIGENVALUES  
 -15.02289   7.03233


              NET ATOMIC CHARGES AND DIPOLE CONTRIBUTIONS

  ATOM NO.   TYPE          CHARGE      No. of ELECS.   s-Pop       
    1          H          -0.000000        1.0000     1.00000
    2          H           0.000000        1.0000     1.00000
 DIPOLE           X         Y         Z       TOTAL
 POINT-CHG.     0.000    -0.000    -0.000     0.000
 HYBRID         0.000     0.000     0.000     0.000
 SUM            0.000    -0.000    -0.000     0.000


          ATOMIC ORBITAL ELECTRON POPULATIONS

     Atom    s   
    1  H   1.00000
    2  H   1.00000

 **********************
 *                    *
 * JOB ENDED NORMALLY *
 *                    *
 **********************



 TOTAL JOB TIME:             0.03 SECONDS

 == MOPAC DONE ==
