 *******************************************************************************
 ** Site#: 6211         For non-commercial use only     Version 16.093W 64BITS**
 *******************************************************************************
 ** Cite this program as: MOPAC2016, Version: 16.093W, James J. P. Stewart,   **
 ** Stewart Computational Chemistry, web: HTTP://OpenMOPAC.net. Days left: 352**
 *******************************************************************************
 **                                                                           **
 **                                MOPAC2016                                  **
 **                                                                           **
 *******************************************************************************

                              PM7 CALCULATION RESULTS


 *******************************************************************************
 *  CALCULATION DONE:                                Sat Apr 16 12:22:53 2016  *
 *  T=         - A TIME OF 172800.0 SECONDS REQUESTED
 *  DUMP=N     - RESTART FILE WRITTEN EVERY  7200.000 SECONDS
 *******************************************************************************

 h-h-mol

   ATOM   CHEMICAL          X               Y               Z
  NUMBER   SYMBOL      (ANGSTROMS)     (ANGSTROMS)     (ANGSTROMS)
 
     1       H          0.00000000  *   0.00000000  *   0.00000000  *
     2       H          1.00000000  *   0.00000000  *   0.00000000  *
 


          CARTESIAN COORDINATES 

    NO.       ATOM         X         Y         Z

     1         H        0.0000    0.0000    0.0000
     2         H        1.0000    0.0000    0.0000

 General Reference for PM7:
 "Optimization of Parameters for Semiempirical Methods VI: More Modifications to the 
 NDDO Approximations and Re-optimization of Parameters", J. J. P. Stewart, J. Mol. Mod., 1:32, 19 (2013)
 http://www.springerlink.com/openurl.asp?genre=article&id=doi:10.1007/s00894-012-1667-x

           Empirical Formula: H2  =     2 atoms



      MOLECULAR POINT GROUP   :   D*h 


      RHF CALCULATION, NO. OF DOUBLY OCCUPIED LEVELS = 1


          Geometry optimization using EF

          DIAGONAL MATRIX USED AS START HESSIAN

 CYCLE:     1 TIME:   0.000 TIME LEFT:  2.00D  GRAD.:   244.064 HEAT: -6.323965
 CYCLE:     2 TIME:   0.004 TIME LEFT:  2.00D  GRAD.:    89.166 HEAT: -30.72401
 CYCLE:     3 TIME:   0.000 TIME LEFT:  2.00D  GRAD.:    57.391 HEAT: -31.31442
 CYCLE:     4 TIME:   0.000 TIME LEFT:  2.00D  GRAD.:     6.853 HEAT: -32.00164
 CYCLE:     5 TIME:   0.000 TIME LEFT:  2.00D  GRAD.:     0.637 HEAT: -32.01051

     GRADIENT =  0.63694  IS LESS THAN CUTOFF =  1.00000



 -------------------------------------------------------------------------------

 h-h-mol



     GEOMETRY OPTIMISED USING EIGENVECTOR FOLLOWING (EF).     
     SCF FIELD WAS ACHIEVED                                   


                              PM7 CALCULATION
                                                       MOPAC2016 (Version: 16.093W)
                                                       Sat Apr 16 12:22:53 2016
                                                       No. of days remaining = 352




          FINAL HEAT OF FORMATION =        -32.01051 KCAL/MOL =    -133.93196 KJ/MOL


          TOTAL ENERGY            =        -28.04697 EV
          ELECTRONIC ENERGY       =        -42.80415 EV  POINT GROUP:     D*h 
          CORE-CORE REPULSION     =         14.75718 EV
          COSMO AREA              =         27.33 SQUARE ANGSTROMS
          COSMO VOLUME            =         13.09 CUBIC ANGSTROMS

          GRADIENT NORM           =          0.63694
          IONIZATION POTENTIAL    =         15.028938 EV
          HOMO LUMO ENERGIES (EV) =        -15.029  7.038
          NO. OF FILLED LEVELS    =          1
          MOLECULAR WEIGHT        =          2.0158

          MOLECULAR DIMENSIONS (Angstroms)

            Atom       Atom       Distance
            H     2    H     1     0.75918
            H     2    H     1     0.00000
            H     1    H     2     0.00000


          SCF CALCULATIONS        =          6
 
          WALL-CLOCK TIME         =          0.078 SECONDS
          COMPUTATION TIME        =          0.016 SECONDS




   ATOM   CHEMICAL          X               Y               Z
  NUMBER   SYMBOL      (ANGSTROMS)     (ANGSTROMS)     (ANGSTROMS)
 
     1       H          0.12040764  *  -0.00000000  *  -0.00000000  *
     2       H          0.87959237  *  -0.00000000  *  -0.00000000  *

                             CARTESIAN COORDINATES

   1    H        0.120407636    -0.000000000    -0.000000001
   2    H        0.879592365    -0.000000000    -0.000000001


           Empirical Formula: H2  =     2 atoms



      MOLECULAR POINT GROUP   :   D*h 


                  EIGENVALUES  
 -15.02894   7.03837


              NET ATOMIC CHARGES AND DIPOLE CONTRIBUTIONS

  ATOM NO.   TYPE          CHARGE      No. of ELECS.   s-Pop       
    1          H          -0.000000        1.0000     1.00000
    2          H           0.000000        1.0000     1.00000
 DIPOLE           X         Y         Z       TOTAL
 POINT-CHG.     0.000    -0.000    -0.000     0.000
 HYBRID         0.000     0.000     0.000     0.000
 SUM            0.000    -0.000    -0.000     0.000


          ATOMIC ORBITAL ELECTRON POPULATIONS

     Atom    s   
    1  H   1.00000
    2  H   1.00000

 **********************
 *                    *
 * JOB ENDED NORMALLY *
 *                    *
 **********************



 TOTAL JOB TIME:             0.08 SECONDS

 == MOPAC DONE ==
